<?xml version="1.0"?>
<VTKFile type="ImageData" version="0.1" byte_order="LittleEndian">
  <ImageData WholeExtent="0 31 0 31 0 31" Origin="0 0 0" Spacing="0.03125 0.03125 0.03125">
    <Piece Extent="0 31 0 31 0 31">
      <PointData Scalars="phi">
        <DataArray type="Float64" Name="phi" format="ascii">
1.92969 1.86133 1.79688 1.73438 1.67383 1.61719 1.5625 1.50977 1.46191 1.41602 1.375 1.33594 1.29785 1.2627 1.23047 1.19922 1.16895 1.1416 1.11426 1.08984 1.06738 1.04785 1.03125 1.0166 1.00488 0.996094 0.988281 0.981445 0.976562 0.972656 0.969727 0.96875 1.92969 1.86133 1.79688 1.73438 1.67383 1.61719 1.5625 1.50977 1.46191 1.41602 1.375 1.33594 1.29785 1.2627 1.23047 1.19922 1.16895 1.1416 1.11426 1.08984 1.06738 1.04785 1.03125 1.0166 1.00488 0.996094 0.988281 0.981445 0.976562 0.972656 0.969727 0.96875 1.92969 1.86133 1.79688 1.73438 1.67383 1.61719 1.5625 1.50977 1.46191 1.41602 1.375 1.33594 1.29785 1.2627 1.23047 1.19922 1.16895 1.1416 1.11426 1.08984 1.06738 1.04785 1.03125 1.0166 1.00488 0.996094 0.988281 0.981445 0.976562 0.972656 0.969727 0.96875 1.92969 1.86133 1.79688 1.73438 1.67383 1.61719 1.5625 1.50977 1.46191 1.41602 1.375 1.33594 1.29785 1.2627 1.23047 1.19922 1.16895 1.1416 1.11426 1.08984 1.06738 1.04785 1.03125 1.0166 1.00488 0.996094 0.988281 0.981445 0.976562 0.972656 0.969727 0.96875 1.92969 1.86133 1.79688 1.73438 1.67383 1.61719 1.5625 1.50977 1.46191 1.41602 1.375 1.33594 1.29785 1.2627 1.23047 1.19922 1.16895 1.1416 1.11426 1.08984 1.06738 1.04785 1.03125 1.0166 1.00488 0.996094 0.988281 0.981445 0.976562 0.972656 0.969727 0.96875 1.92969 1.86133 1.79688 1.73438 1.67383 1.61719 1.5625 1.50977 1.46191 1.41602 1.375 1.33594 1.29785 1.2627 1.23047 1.19922 1.16895 1.1416 1.11426 1.08984 1.06738 1.04785 1.03125 1.0166 1.00488 0.996094 0.988281 0.981445 0.976562 0.972656 0.969727 0.96875 1.92969 1.86133 1.79688 1.73438 1.67383 1.61719 1.5625 1.50977 1.46191 1.41602 1.375 1.33594 1.29785 1.2627 1.23047 1.19922 1.16895 1.1416 1.11426 1.08984 1.06738 1.04785 1.03125 1.0166 1.00488 0.996094 0.988281 0.981445 0.976562 0.972656 0.969727 0.96875 1.92969 1.86133 1.79688 1.73438 1.67383 1.61719 1.5625 1.50977 1.46191 1.41602 1.375 1.33594 1.29785 1.2627 1.23047 1.19922 1.16895 1.1416 1.11426 1.08984 1.06738 1.04785 1.03125 1.0166 1.00488 0.996094 0.988281 0.981445 0.976562 0.972656 0.969727 0.96875 1.92969 1.86133 1.79688 1.73438 1.67383 1.61719 1.5625 1.50977 1.46191 1.41602 1.375 1.33594 1.29785 1.2627 1.23047 1.19922 1.16895 1.1416 1.11426 1.08984 1.06738 1.04785 1.03125 1.0166 1.00488 0.996094 0.988281 0.981445 0.976562 0.972656 0.969727 0.96875 1.92969 1.86133 1.79688 1.73438 1.67383 1.61719 1.5625 1.50977 1.46191 1.41602 1.375 1.33594 1.29785 1.2627 1.23047 1.19922 1.16895 1.1416 1.11426 1.08984 1.06738 1.04785 1.03125 1.0166 1.00488 0.996094 0.988281 0.981445 0.976562 0.972656 0.969727 0.96875 1.92969 1.86133 1.79688 1.73438 1.67383 1.61719 1.5625 1.50977 1.46191 1.41602 1.375 1.33594 1.29785 1.2627 1.23047 1.19922 1.16895 1.1416 1.11426 1.08984 1.06738 1.04785 1.03125 1.0166 1.00488 0.996094 0.988281 0.981445 0.976562 0.972656 0.969727 0.96875 1.92969 1.86133 1.79688 1.73438 1.67383 1.61719 1.5625 1.50977 1.46191 1.41602 1.375 1.33594 1.29785 1.2627 1.23047 1.19922 1.16895 1.1416 1.11426 1.08984 1.06738 1.04785 1.03125 1.0166 1.00488 0.996094 0.988281 0.981445 0.976562 0.972656 0.969727 0.96875 1.92969 1.86133 1.79688 1.73438 1.67383 1.61719 1.5625 1.50977 1.46191 1.41602 1.375 1.33594 1.29785 1.2627 1.23047 1.19922 1.16895 1.1416 1.11426 1.08984 1.06738 1.04785 1.03125 1.0166 1.00488 0.996094 0.988281 0.981445 0.976562 0.972656 0.969727 0.96875 1.92969 1.86133 1.79688 1.73438 1.67383 1.61719 1.5625 1.50977 1.46191 1.41602 1.375 1.33594 1.29785 1.2627 1.23047 1.19922 1.16895 1.1416 1.11426 1.08984 1.06738 1.04785 1.03125 1.0166 1.00488 0.996094 0.988281 0.981445 0.976562 0.972656 0.969727 0.96875 1.92969 1.86133 1.79688 1.73438 1.67383 1.61719 1.5625 1.50977 1.46191 1.41602 1.375 1.33594 1.29785 1.2627 1.23047 1.19922 1.16895 1.1416 1.11426 1.08984 1.06738 1.04785 1.03125 1.0166 1.00488 0.996094 0.988281 0.981445 0.976562 0.972656 0.969727 0.96875 1.92969 1.86133 1.79688 1.73438 1.67383 1.61719 1.5625 1.50977 1.46191 1.41602 1.375 1.33594 1.29785 1.2627 1.23047 1.19922 1.16895 1.1416 1.11426 1.08984 1.06738 1.04785 1.03125 1.0166 1.00488 0.996094 0.988281 0.981445 0.976562 0.972656 0.969727 0.96875 1.92969 1.86133 1.79688 1.73438 1.67383 1.61719 1.5625 1.50977 1.46191 1.41602 1.375 1.33594 1.29785 1.2627 1.23047 1.19922 1.16895 1.1416 1.11426 1.08984 1.06738 1.04785 1.03125 1.0166 1.00488 0.996094 0.988281 0.981445 0.976562 0.972656 0.969727 0.96875 1.92969 1.86133 1.79688 1.73438 1.67383 1.61719 1.5625 1.50977 1.46191 1.41602 1.375 1.33594 1.29785 1.2627 1.23047 1.19922 1.16895 1.1416 1.11426 1.08984 1.06738 1.04785 1.03125 1.0166 1.00488 0.996094 0.988281 0.981445 0.976562 0.972656 0.969727 0.96875 1.92969 1.86133 1.79688 1.73438 1.67383 1.61719 1.5625 1.50977 1.46191 1.41602 1.375 1.33594 1.29785 1.2627 1.23047 1.19922 1.16895 1.1416 1.11426 1.08984 1.06738 1.04785 1.03125 1.0166 1.00488 0.996094 0.988281 0.981445 0.976562 0.972656 0.969727 0.96875 1.92969 1.86133 1.79688 1.73438 1.67383 1.61719 1.5625 1.50977 1.46191 1.41602 1.375 1.33594 1.29785 1.2627 1.23047 1.19922 1.16895 1.1416 1.11426 1.08984 1.06738 1.04785 1.03125 1.0166 1.00488 0.996094 0.988281 0.981445 0.976562 0.972656 0.969727 0.96875 1.92969 1.86133 1.79688 1.73438 1.67383 1.61719 1.5625 1.50977 1.46191 1.41602 1.375 1.33594 1.29785 1.2627 1.23047 1.19922 1.16895 1.1416 1.11426 1.08984 1.06738 1.04785 1.03125 1.0166 1.00488 0.996094 0.988281 0.981445 0.976562 0.972656 0.969727 0.96875 1.92969 1.86133 1.79688 1.73438 1.67383 1.61719 1.5625 1.50977 1.46191 1.41602 1.375 1.33594 1.29785 1.2627 1.23047 1.19922 1.16895 1.1416 1.11426 1.08984 1.06738 1.04785 1.03125 1.0166 1.00488 0.996094 0.988281 0.981445 0.976562 0.972656 0.969727 0.96875 1.92969 1.86133 1.79688 1.73438 1.67383 1.61719 1.5625 1.50977 1.46191 1.41602 1.375 1.33594 1.29785 1.2627 1.23047 1.19922 1.16895 1.1416 1.11426 1.08984 1.06738 1.04785 1.03125 1.0166 1.00488 0.996094 0.988281 0.981445 0.976562 0.972656 0.969727 0.96875 1.92969 1.86133 1.79688 1.73438 1.67383 1.61719 1.5625 1.50977 1.46191 1.41602 1.375 1.33594 1.29785 1.2627 1.23047 1.19922 1.16895 1.1416 1.11426 1.08984 1.06738 1.04785 1.03125 1.0166 1.00488 0.996094 0.988281 0.981445 0.976562 0.972656 0.969727 0.96875 1.92969 1.86133 1.79688 1.73438 1.67383 1.61719 1.5625 1.50977 1.46191 1.41602 1.375 1.33594 1.29785 1.2627 1.23047 1.19922 1.16895 1.1416 1.11426 1.08984 1.06738 1.04785 1.03125 1.0166 1.00488 0.996094 0.988281 0.981445 0.976562 0.972656 0.969727 0.96875 1.92969 1.86133 1.79688 1.73438 1.67383 1.61719 1.5625 1.50977 1.46191 1.41602 1.375 1.33594 1.29785 1.2627 1.23047 1.19922 1.16895 1.1416 1.11426 1.08984 1.06738 1.04785 1.03125 1.0166 1.00488 0.996094 0.988281 0.981445 0.976562 0.972656 0.969727 0.96875 1.92969 1.86133 1.79688 1.73438 1.67383 1.61719 1.5625 1.50977 1.46191 1.41602 1.375 1.33594 1.29785 1.2627 1.23047 1.19922 1.16895 1.1416 1.11426 1.08984 1.06738 1.04785 1.03125 1.0166 1.00488 0.996094 0.988281 0.981445 0.976562 0.972656 0.969727 0.96875 1.92969 1.86133 1.79688 1.73438 1.67383 1.61719 1.5625 1.50977 1.46191 1.41602 1.375 1.33594 1.29785 1.2627 1.23047 1.19922 1.16895 1.1416 1.11426 1.08984 1.06738 1.04785 1.03125 1.0166 1.00488 0.996094 0.988281 0.981445 0.976562 0.972656 0.969727 0.96875 1.92969 1.86133 1.79688 1.73438 1.67383 1.61719 1.5625 1.50977 1.46191 1.41602 1.375 1.33594 1.29785 1.2627 1.23047 1.19922 1.16895 1.1416 1.11426 1.08984 1.06738 1.04785 1.03125 1.0166 1.00488 0.996094 0.988281 0.981445 0.976562 0.972656 0.969727 0.96875 1.92969 1.86133 1.79688 1.73438 1.67383 1.61719 1.5625 1.50977 1.46191 1.41602 1.375 1.33594 1.29785 1.2627 1.23047 1.19922 1.16895 1.1416 1.11426 1.08984 1.06738 1.04785 1.03125 1.0166 1.00488 0.996094 0.988281 0.981445 0.976562 0.972656 0.969727 0.96875 1.92969 1.86133 1.79688 1.73438 1.67383 1.61719 1.5625 1.50977 1.46191 1.41602 1.375 1.33594 1.29785 1.2627 1.23047 1.19922 1.16895 1.1416 1.11426 1.08984 1.06738 1.04785 1.03125 1.0166 1.00488 0.996094 0.988281 0.981445 0.976562 0.972656 0.969727 0.96875 1.92969 1.86133 1.79688 1.73438 1.67383 1.61719 1.5625 1.50977 1.46191 1.41602 1.375 1.33594 1.29785 1.2627 1.23047 1.19922 1.16895 1.1416 1.11426 1.08984 1.06738 1.04785 1.03125 1.0166 1.00488 0.996094 0.988281 0.981445 0.976562 0.972656 0.969727 0.96875 1.92969 1.86133 1.79688 1.73438 1.67383 1.61719 1.5625 1.50977 1.46191 1.41602 1.375 1.33594 1.29785 1.2627 1.23047 1.19922 1.16895 1.1416 1.11426 1.08984 1.06738 1.04785 1.03125 1.0166 1.00488 0.996094 0.988281 0.981445 0.976562 0.972656 0.969727 0.96875 1.92969 1.86035 1.79688 1.73438 1.67285 1.61719 1.5625 1.50879 1.46191 1.41504 1.375 1.33594 1.29785 1.2627 1.23047 1.19922 1.16895 1.1416 1.11426 1.08984 1.06738 1.04785 1.03125 1.0166 1.00488 0.996094 0.988281 0.980957 0.976562 0.972656 0.969238 0.96875 1.92969 1.86035 1.79688 1.73438 1.67285 1.61719 1.5625 1.50879 1.46191 1.41504 1.375 1.33594 1.29785 1.2627 1.23047 1.19922 1.16895 1.1416 1.11426 1.08984 1.06738 1.04785 1.03125 1.0166 1.00488 0.996094 0.988281 0.980957 0.976562 0.972656 0.969238 0.96875 1.92969 1.86035 1.79688 1.73438 1.67285 1.61719 1.5625 1.50879 1.46191 1.41504 1.375 1.33594 1.29785 1.2627 1.23047 1.19922 1.16895 1.1416 1.11426 1.08984 1.06738 1.04785 1.03125 1.0166 1.00488 0.996094 0.988281 0.980957 0.976562 0.972656 0.969238 0.96875 1.92969 1.86035 1.79688 1.73438 1.67285 1.61719 1.5625 1.50879 1.46191 1.41504 1.375 1.33594 1.29785 1.2627 1.23047 1.19922 1.16895 1.1416 1.11426 1.08984 1.06738 1.04785 1.03125 1.0166 1.00488 0.996094 0.988281 0.980957 0.976562 0.972656 0.969238 0.96875 1.92969 1.86035 1.79688 1.73438 1.67285 1.61719 1.5625 1.50879 1.46191 1.41504 1.375 1.33594 1.29785 1.2627 1.23047 1.19922 1.16895 1.1416 1.11426 1.08984 1.06738 1.04785 1.03125 1.0166 1.00488 0.996094 0.988281 0.980957 0.976562 0.972656 0.969238 0.96875 1.92969 1.86035 1.79688 1.73438 1.67285 1.61719 1.5625 1.50879 1.46191 1.41504 1.375 1.33594 1.29785 1.2627 1.23047 1.19922 1.16895 1.1416 1.11426 1.08984 1.06738 1.04785 1.03125 1.0166 1.00488 0.996094 0.988281 0.980957 0.976562 0.972656 0.969238 0.96875 1.92969 1.86035 1.79688 1.73438 1.67285 1.61719 1.5625 1.50879 1.46191 1.41504 1.375 1.33594 1.29785 1.2627 1.23047 1.19922 1.16895 1.1416 1.11426 1.08984 1.06738 1.04785 1.03125 1.0166 1.00488 0.996094 0.988281 0.980957 0.976562 0.972656 0.969238 0.96875 1.92969 1.86035 1.79688 1.73438 1.67285 1.61719 1.5625 1.50879 1.46191 1.41504 1.375 1.33594 1.29785 1.2627 1.23047 1.19922 1.16895 1.1416 1.11426 1.08984 1.06738 1.04785 1.03125 1.0166 1.00488 0.996094 0.988281 0.980957 0.976562 0.972656 0.969238 0.96875 1.92969 1.86035 1.79688 1.73438 1.67285 1.61719 1.5625 1.50879 1.46191 1.41504 1.375 1.33594 1.29785 1.2627 1.23047 1.19922 1.16895 1.1416 1.11426 1.08984 1.06738 1.04785 1.03125 1.0166 1.00488 0.996094 0.988281 0.980957 0.976562 0.972656 0.969238 0.96875 1.92969 1.86035 1.79688 1.73438 1.67285 1.61719 1.5625 1.50879 1.46191 1.41504 1.375 1.33594 1.29785 1.2627 1.23047 1.19922 1.16895 1.1416 1.11426 1.08984 1.06738 1.04785 1.03125 1.0166 1.00488 0.996094 0.988281 0.980957 0.976562 0.972656 0.969238 0.96875 1.92969 1.86035 1.79688 1.73438 1.67285 1.61719 1.5625 1.50879 1.46191 1.41504 1.375 1.33594 1.29785 1.2627 1.23047 1.19922 1.16895 1.1416 1.11426 1.08984 1.06738 1.04785 1.03125 1.0166 1.00488 0.996094 0.988281 0.980957 0.976562 0.972656 0.969238 0.96875 1.92969 1.86035 1.79688 1.73438 1.67285 1.61719 1.5625 1.50879 1.46191 1.41504 1.375 1.33594 1.29785 1.2627 1.23047 1.19922 1.16895 1.1416 1.11426 1.08984 1.06738 1.04785 1.03125 1.0166 1.00488 0.996094 0.988281 0.980957 0.976562 0.972656 0.969238 0.96875 1.92969 1.86035 1.79688 1.73438 1.67285 1.61719 1.5625 1.50879 1.46191 1.41504 1.375 1.33594 1.29785 1.2627 1.23047 1.19922 1.16895 1.1416 1.11426 1.08984 1.06738 1.04785 1.03125 1.0166 1.00488 0.996094 0.988281 0.980957 0.976562 0.972656 0.969238 0.96875 1.92969 1.86035 1.79688 1.73438 1.67285 1.61719 1.5625 1.50879 1.46191 1.41504 1.375 1.33594 1.29785 1.2627 1.23047 1.19922 1.16895 1.1416 1.11426 1.08984 1.06738 1.04785 1.03125 1.0166 1.00488 0.996094 0.988281 0.980957 0.976562 0.972656 0.969238 0.96875 1.92969 1.86035 1.79688 1.73438 1.67285 1.61719 1.5625 1.50879 1.46191 1.41504 1.375 1.33594 1.29785 1.2627 1.23047 1.19922 1.16895 1.1416 1.11426 1.08984 1.06738 1.04785 1.03125 1.0166 1.00488 0.996094 0.988281 0.980957 0.976562 0.972656 0.969238 0.96875 1.92969 1.86035 1.79688 1.73438 1.67285 1.61719 1.5625 1.50879 1.46191 1.41504 1.375 1.33594 1.29785 1.2627 1.23047 1.19922 1.16895 1.1416 1.11426 1.08984 1.06738 1.04785 1.03125 1.0166 1.00488 0.996094 0.988281 0.980957 0.976562 0.972656 0.969238 0.96875 1.92969 1.86035 1.79688 1.73438 1.67285 1.61719 1.5625 1.50879 1.46191 1.41504 1.375 1.33594 1.29785 1.2627 1.23047 1.19922 1.16895 1.1416 1.11426 1.08984 1.06738 1.04785 1.03125 1.0166 1.00488 0.996094 0.988281 0.980957 0.976562 0.972656 0.969238 0.96875 1.92969 1.86035 1.79688 1.73438 1.67285 1.61719 1.5625 1.50879 1.46191 1.41504 1.375 1.33594 1.29785 1.2627 1.23047 1.19922 1.16895 1.1416 1.11426 1.08984 1.06738 1.04785 1.03125 1.0166 1.00488 0.996094 0.988281 0.980957 0.976562 0.972656 0.969238 0.96875 1.92969 1.86035 1.79688 1.73438 1.67285 1.61719 1.5625 1.50879 1.46191 1.41504 1.375 1.33594 1.29785 1.2627 1.23047 1.19922 1.16895 1.1416 1.11426 1.08984 1.06738 1.04785 1.03125 1.0166 1.00488 0.996094 0.988281 0.980957 0.976562 0.972656 0.969238 0.96875 1.92969 1.86035 1.79688 1.73438 1.67285 1.61719 1.5625 1.50879 1.46191 1.41504 1.375 1.33594 1.29785 1.2627 1.23047 1.19922 1.16895 1.1416 1.11426 1.08984 1.06738 1.04785 1.03125 1.0166 1.00488 0.996094 0.988281 0.980957 0.976562 0.972656 0.969238 0.96875 1.92969 1.86035 1.79688 1.73438 1.67285 1.61719 1.5625 1.50879 1.46191 1.41504 1.375 1.33594 1.29785 1.2627 1.23047 1.19922 1.16895 1.1416 1.11426 1.08984 1.06738 1.04785 1.03125 1.0166 1.00488 0.996094 0.988281 0.980957 0.976562 0.972656 0.969238 0.96875 1.92969 1.86035 1.79688 1.73438 1.67285 1.61719 1.5625 1.50879 1.46191 1.41504 1.375 1.33594 1.29785 1.2627 1.23047 1.19922 1.16895 1.1416 1.11426 1.08984 1.06738 1.04785 1.03125 1.0166 1.00488 0.996094 0.988281 0.980957 0.976562 0.972656 0.969238 0.96875 1.92969 1.86035 1.79688 1.73438 1.67285 1.61719 1.5625 1.50879 1.46191 1.41504 1.375 1.33594 1.29785 1.2627 1.23047 1.19922 1.16895 1.1416 1.11426 1.08984 1.06738 1.04785 1.03125 1.0166 1.00488 0.996094 0.988281 0.980957 0.976562 0.972656 0.969238 0.96875 1.92969 1.86035 1.79688 1.73438 1.67285 1.61719 1.5625 1.50879 1.46191 1.41504 1.375 1.33594 1.29785 1.2627 1.23047 1.19922 1.16895 1.1416 1.11426 1.08984 1.06738 1.04785 1.03125 1.0166 1.00488 0.996094 0.988281 0.980957 0.976562 0.972656 0.969238 0.96875 1.92969 1.86035 1.79688 1.73438 1.67285 1.61719 1.5625 1.50879 1.46191 1.41504 1.375 1.33594 1.29785 1.2627 1.23047 1.19922 1.16895 1.1416 1.11426 1.08984 1.06738 1.04785 1.03125 1.0166 1.00488 0.996094 0.988281 0.980957 0.976562 0.972656 0.969238 0.96875 1.92969 1.86035 1.79688 1.73438 1.67285 1.61719 1.5625 1.50879 1.46191 1.41504 1.375 1.33594 1.29785 1.2627 1.23047 1.19922 1.16895 1.1416 1.11426 1.08984 1.06738 1.04785 1.03125 1.0166 1.00488 0.996094 0.988281 0.980957 0.976562 0.972656 0.969238 0.96875 1.92969 1.86035 1.79688 1.73438 1.67285 1.61719 1.5625 1.50879 1.46191 1.41504 1.375 1.33594 1.29785 1.2627 1.23047 1.19922 1.16895 1.1416 1.11426 1.08984 1.06738 1.04785 1.03125 1.0166 1.00488 0.996094 0.988281 0.980957 0.976562 0.972656 0.969238 0.96875 1.92969 1.86035 1.79688 1.73438 1.67285 1.61719 1.5625 1.50879 1.46191 1.41504 1.375 1.33594 1.29785 1.2627 1.23047 1.19922 1.16895 1.1416 1.11426 1.08984 1.06738 1.04785 1.03125 1.0166 1.00488 0.996094 0.988281 0.980957 0.976562 0.972656 0.969238 0.96875 1.92969 1.86035 1.79688 1.73438 1.67285 1.61719 1.5625 1.50879 1.46191 1.41504 1.375 1.33594 1.29785 1.2627 1.23047 1.19922 1.16895 1.1416 1.11426 1.08984 1.06738 1.04785 1.03125 1.0166 1.00488 0.996094 0.988281 0.980957 0.976562 0.972656 0.969238 0.96875 1.92969 1.86035 1.79688 1.73438 1.67285 1.61719 1.5625 1.50879 1.46191 1.41504 1.375 1.33594 1.29785 1.2627 1.23047 1.19922 1.16895 1.1416 1.11426 1.08984 1.06738 1.04785 1.03125 1.0166 1.00488 0.996094 0.988281 0.980957 0.976562 0.972656 0.969238 0.96875 1.92969 1.86133 1.79688 1.73438 1.67383 1.61719 1.5625 1.50977 1.46191 1.41602 1.375 1.33594 1.29785 1.2627 1.23047 1.19922 1.16895 1.1416 1.11426 1.08984 1.06738 1.04785 1.03125 1.0166 1.00488 0.996094 0.988281 0.981445 0.976562 0.972656 0.969727 0.96875 1.92969 1.86133 1.79688 1.73438 1.67383 1.61719 1.5625 1.50977 1.46191 1.41602 1.375 1.33594 1.29785 1.2627 1.23047 1.19922 1.16895 1.1416 1.11426 1.08984 1.06738 1.04785 1.03125 1.0166 1.00488 0.996094 0.988281 0.981445 0.976562 0.972656 0.969727 0.96875 1.92969 1.86035 1.79688 1.73438 1.67285 1.61719 1.5625 1.50879 1.46191 1.41504 1.375 1.33594 1.29785 1.2627 1.23047 1.19922 1.16895 1.1416 1.11426 1.08984 1.06738 1.04785 1.03125 1.0166 1.00488 0.996094 0.988281 0.980957 0.976562 0.972656 0.969238 0.96875 1.92969 1.86035 1.79688 1.73438 1.67285 1.61719 1.5625 1.50879 1.46191 1.41504 1.375 1.33594 1.29785 1.2627 1.23047 1.19922 1.16895 1.1416 1.11426 1.08984 1.06738 1.04785 1.03125 1.0166 1.00488 0.996094 0.988281 0.980957 0.976562 0.972656 0.969238 0.96875 1.92969 1.86035 1.79688 1.73438 1.67285 1.61719 1.5625 1.50879 1.46191 1.41504 1.375 1.33594 1.29785 1.2627 1.23047 1.19922 1.16895 1.1416 1.11426 1.08984 1.06738 1.04785 1.03125 1.0166 1.00488 0.996094 0.988281 0.980957 0.976562 0.972656 0.969238 0.96875 1.92969 1.86035 1.79688 1.73438 1.67285 1.61719 1.5625 1.50879 1.46191 1.41504 1.375 1.33594 1.29785 1.2627 1.23047 1.19922 1.16895 1.1416 1.11426 1.08984 1.06738 1.04785 1.03125 1.0166 1.00488 0.996094 0.988281 0.980957 0.976562 0.972656 0.969238 0.96875 1.92969 1.86035 1.79688 1.73438 1.67285 1.61719 1.5625 1.50879 1.46191 1.41504 1.375 1.33594 1.29785 1.2627 1.23047 1.19922 1.16895 1.1416 1.11426 1.08984 1.06738 1.04785 1.03125 1.0166 1.00488 0.996094 0.988281 0.980957 0.976562 0.972656 0.969238 0.96875 1.92969 1.86035 1.79688 1.73438 1.67285 1.61719 1.5625 1.50879 1.46191 1.41504 1.375 1.33594 1.29785 1.2627 1.23047 1.19922 1.16895 1.1416 1.11426 1.08984 1.06738 1.04785 1.03125 1.0166 1.00488 0.996094 0.988281 0.980957 0.976562 0.972656 0.969238 0.96875 1.92969 1.86035 1.79688 1.73438 1.67285 1.61719 1.5625 1.50879 1.46191 1.41504 1.375 1.33594 1.29785 1.2627 1.23047 1.19922 1.16895 1.1416 1.11426 1.08984 1.06738 1.04785 1.03125 1.0166 1.00488 0.996094 0.988281 0.980957 0.976562 0.972656 0.969238 0.96875 1.92969 1.86035 1.79688 1.73438 1.67285 1.61719 1.5625 1.50879 1.46191 1.41504 1.375 1.33594 1.29785 1.2627 1.23047 1.19922 1.16895 1.1416 1.11426 1.08984 1.06738 1.04785 1.03125 1.0166 1.00488 0.996094 0.988281 0.980957 0.976562 0.972656 0.969238 0.96875 1.92969 1.86035 1.79688 1.73438 1.67285 1.61719 1.5625 1.50879 1.46191 1.41504 1.375 1.33594 1.29785 1.2627 1.23047 1.19922 1.16895 1.1416 1.11426 1.08984 1.06738 1.04785 1.03125 1.0166 1.00488 0.996094 0.988281 0.980957 0.976562 0.972656 0.969238 0.96875 1.92969 1.86035 1.79688 1.73438 1.67285 1.61719 1.5625 1.50879 1.46191 1.41504 1.375 1.33594 1.29785 1.2627 1.23047 1.19922 1.16895 1.1416 1.11426 1.08984 1.06738 1.04785 1.03125 1.0166 1.00488 0.996094 0.988281 0.980957 0.976562 0.972656 0.969238 0.96875 1.92969 1.86035 1.79688 1.73438 1.67285 1.61719 1.5625 1.50879 1.46191 1.41504 1.375 1.33594 1.29785 1.2627 1.23047 1.19922 1.16895 1.1416 1.11426 1.08984 1.06738 1.04785 1.03125 1.0166 1.00488 0.996094 0.988281 0.980957 0.976562 0.972656 0.969238 0.96875 1.92969 1.86035 1.79688 1.73438 1.67285 1.61719 1.5625 1.50879 1.46191 1.41504 1.375 1.33594 1.29785 1.2627 1.23047 1.19922 1.16895 1.1416 1.11426 1.08984 1.06738 1.04785 1.03125 1.0166 1.00488 0.996094 0.988281 0.980957 0.976562 0.972656 0.969238 0.96875 1.92969 1.86035 1.79688 1.73438 1.67285 1.61719 1.5625 1.50879 1.46191 1.41504 1.375 1.33594 1.29785 1.2627 1.23047 1.19922 1.16895 1.1416 1.11426 1.08984 1.06738 1.04785 1.03125 1.0166 1.00488 0.996094 0.988281 0.980957 0.976562 0.972656 0.969238 0.96875 1.92969 1.86035 1.79688 1.73438 1.67285 1.61719 1.5625 1.50879 1.46191 1.41504 1.375 1.33594 1.29785 1.2627 1.23047 1.19922 1.16895 1.1416 1.11426 1.08984 1.06738 1.04785 1.03125 1.0166 1.00488 0.996094 0.988281 0.980957 0.976562 0.972656 0.969238 0.96875 1.92969 1.86035 1.79688 1.73438 1.67285 1.61719 1.5625 1.50879 1.46191 1.41504 1.375 1.33594 1.29785 1.2627 1.23047 1.19922 1.16895 1.1416 1.11426 1.08984 1.06738 1.04785 1.03125 1.0166 1.00488 0.996094 0.988281 0.980957 0.976562 0.972656 0.969238 0.96875 1.92969 1.86035 1.79688 1.73438 1.67285 1.61719 1.5625 1.50879 1.46191 1.41504 1.375 1.33594 1.29785 1.2627 1.23047 1.19922 1.16895 1.1416 1.11426 1.08984 1.06738 1.04785 1.03125 1.0166 1.00488 0.996094 0.988281 0.980957 0.976562 0.972656 0.969238 0.96875 1.92969 1.86035 1.79688 1.73438 1.67285 1.61719 1.5625 1.50879 1.46191 1.41504 1.375 1.33594 1.29785 1.2627 1.23047 1.19922 1.16895 1.1416 1.11426 1.08984 1.06738 1.04785 1.03125 1.0166 1.00488 0.996094 0.988281 0.980957 0.976562 0.972656 0.969238 0.96875 1.92969 1.86035 1.79688 1.73438 1.67285 1.61719 1.5625 1.50879 1.46191 1.41504 1.375 1.33594 1.29785 1.2627 1.23047 1.19922 1.16895 1.1416 1.11426 1.08984 1.06738 1.04785 1.03125 1.0166 1.00488 0.996094 0.988281 0.980957 0.976562 0.972656 0.969238 0.96875 1.92969 1.86035 1.79688 1.73438 1.67285 1.61719 1.5625 1.50879 1.46191 1.41504 1.375 1.33594 1.29785 1.2627 1.23047 1.19922 1.16895 1.1416 1.11426 1.08984 1.06738 1.04785 1.03125 1.0166 1.00488 0.996094 0.988281 0.980957 0.976562 0.972656 0.969238 0.96875 1.92969 1.86035 1.79688 1.73438 1.67285 1.61719 1.5625 1.50879 1.46191 1.41504 1.375 1.33594 1.29785 1.2627 1.23047 1.19922 1.16895 1.1416 1.11426 1.08984 1.06738 1.04785 1.03125 1.0166 1.00488 0.996094 0.988281 0.980957 0.976562 0.972656 0.969238 0.96875 1.92969 1.86035 1.79688 1.73438 1.67285 1.61719 1.5625 1.50879 1.46191 1.41504 1.375 1.33594 1.29785 1.2627 1.23047 1.19922 1.16895 1.1416 1.11426 1.08984 1.06738 1.04785 1.03125 1.0166 1.00488 0.996094 0.988281 0.980957 0.976562 0.972656 0.969238 0.96875 1.92969 1.86035 1.79688 1.73438 1.67285 1.61719 1.5625 1.50879 1.46191 1.41504 1.375 1.33594 1.29785 1.2627 1.23047 1.19922 1.16895 1.1416 1.11426 1.08984 1.06738 1.04785 1.03125 1.0166 1.00488 0.996094 0.988281 0.980957 0.976562 0.972656 0.969238 0.96875 1.92969 1.86035 1.79688 1.73438 1.67285 1.61719 1.5625 1.50879 1.46191 1.41504 1.375 1.33594 1.29785 1.2627 1.23047 1.19922 1.16895 1.1416 1.11426 1.08984 1.06738 1.04785 1.03125 1.0166 1.00488 0.996094 0.988281 0.980957 0.976562 0.972656 0.969238 0.96875 1.92969 1.86035 1.79688 1.73438 1.67285 1.61719 1.5625 1.50879 1.46191 1.41504 1.375 1.33594 1.29785 1.2627 1.23047 1.19922 1.16895 1.1416 1.11426 1.08984 1.06738 1.04785 1.03125 1.0166 1.00488 0.996094 0.988281 0.980957 0.976562 0.972656 0.969238 0.96875 1.92969 1.86035 1.79688 1.73438 1.67285 1.61719 1.5625 1.50879 1.46191 1.41504 1.375 1.33594 1.29785 1.2627 1.23047 1.19922 1.16895 1.1416 1.11426 1.08984 1.06738 1.04785 1.03125 1.0166 1.00488 0.996094 0.988281 0.980957 0.976562 0.972656 0.969238 0.96875 1.92969 1.86035 1.79688 1.73438 1.67285 1.61719 1.5625 1.50879 1.46191 1.41504 1.375 1.33594 1.29785 1.2627 1.23047 1.19922 1.16895 1.1416 1.11426 1.08984 1.06738 1.04785 1.03125 1.0166 1.00488 0.996094 0.988281 0.980957 0.976562 0.972656 0.969238 0.96875 1.92969 1.86035 1.79688 1.73438 1.67285 1.61719 1.5625 1.50879 1.46191 1.41504 1.375 1.33594 1.29785 1.2627 1.23047 1.19922 1.16895 1.1416 1.11426 1.08984 1.06738 1.04785 1.03125 1.0166 1.00488 0.996094 0.988281 0.980957 0.976562 0.972656 0.969238 0.96875 1.92969 1.86035 1.79688 1.73438 1.67285 1.61719 1.5625 1.50879 1.46191 1.41504 1.375 1.33594 1.29785 1.2627 1.23047 1.19922 1.16895 1.1416 1.11426 1.08984 1.06738 1.04785 1.03125 1.0166 1.00488 0.996094 0.988281 0.980957 0.976562 0.972656 0.969238 0.96875 1.92969 1.86035 1.79688 1.73438 1.67285 1.61719 1.5625 1.50879 1.46191 1.41504 1.375 1.33594 1.29785 1.2627 1.23047 1.19922 1.16895 1.1416 1.11426 1.08984 1.06738 1.04785 1.03125 1.0166 1.00488 0.996094 0.988281 0.980957 0.976562 0.972656 0.969238 0.96875 1.92969 1.86035 1.79688 1.73438 1.67285 1.61719 1.5625 1.50879 1.46191 1.41504 1.375 1.33594 1.29785 1.2627 1.23047 1.19922 1.16895 1.1416 1.11426 1.08984 1.06738 1.04785 1.03125 1.0166 1.00488 0.996094 0.988281 0.980957 0.976562 0.972656 0.969238 0.96875 1.92969 1.86133 1.79688 1.73438 1.67383 1.61719 1.5625 1.50977 1.46191 1.41602 1.375 1.33594 1.29785 1.2627 1.23047 1.19922 1.16895 1.1416 1.11426 1.08984 1.06738 1.04785 1.03125 1.0166 1.00488 0.996094 0.988281 0.981445 0.976562 0.972656 0.969727 0.96875 1.92969 1.86133 1.79688 1.73438 1.67383 1.61719 1.5625 1.50977 1.46191 1.41602 1.375 1.33594 1.29785 1.2627 1.23047 1.19922 1.16895 1.1416 1.11426 1.08984 1.06738 1.04785 1.03125 1.0166 1.00488 0.996094 0.988281 0.981445 0.976562 0.972656 0.969727 0.96875 1.92969 1.86035 1.79688 1.73438 1.67285 1.61719 1.5625 1.50879 1.46191 1.41504 1.375 1.33594 1.29785 1.2627 1.23047 1.19922 1.16895 1.1416 1.11426 1.08984 1.06738 1.04785 1.03125 1.0166 1.00488 0.996094 0.988281 0.980957 0.976562 0.972656 0.969238 0.96875 1.92969 1.86035 1.79688 1.73438 1.67285 1.61719 1.5625 1.50879 1.46191 1.41504 1.375 1.33594 1.29785 1.2627 1.23047 1.19922 1.16895 1.1416 1.11426 1.08984 1.06738 1.04785 1.03125 1.0166 1.00488 0.996094 0.988281 0.980957 0.976562 0.972656 0.969238 0.96875 1.92969 1.86035 1.79688 1.73438 1.67285 1.61719 1.5625 1.50879 1.46191 1.41504 1.375 1.33594 1.29785 1.2627 1.23047 1.19922 1.16895 1.1416 1.11426 1.08984 1.06738 1.04785 1.03125 1.0166 1.00488 0.996094 0.988281 0.980957 0.976562 0.972656 0.969238 0.96875 1.92969 1.86035 1.79688 1.73438 1.67285 1.61719 1.5625 1.50879 1.46191 1.41504 1.375 1.33594 1.29785 1.2627 1.23047 1.19922 1.16895 1.1416 1.11426 1.08984 1.06738 1.04785 1.03125 1.0166 1.00488 0.996094 0.988281 0.980957 0.976562 0.972656 0.969238 0.96875 1.92969 1.86035 1.79688 1.73438 1.67285 1.61719 1.5625 1.50879 1.46191 1.41504 1.375 1.33594 1.29785 1.2627 1.23047 1.19922 1.16895 1.1416 1.11426 1.08984 1.06738 1.04785 1.03125 1.0166 1.00488 0.996094 0.988281 0.980957 0.976562 0.972656 0.969238 0.96875 1.92969 1.86035 1.79688 1.73438 1.67285 1.61719 1.5625 1.50879 1.46191 1.41504 1.375 1.33594 1.29785 1.2627 1.23047 1.19922 1.16895 1.1416 1.11426 1.08984 1.06738 1.04785 1.03125 1.0166 1.00488 0.996094 0.988281 0.980957 0.976562 0.972656 0.969238 0.96875 1.92969 1.86035 1.79688 1.73438 1.67285 1.61719 1.5625 1.50879 1.46191 1.41504 1.375 1.33594 1.29785 1.2627 1.23047 1.19922 1.16895 1.1416 1.11426 1.08984 1.06738 1.04785 1.03125 1.0166 1.00488 0.996094 0.988281 0.980957 0.976562 0.972656 0.969238 0.96875 1.92969 1.86035 1.79688 1.73438 1.67285 1.61719 1.5625 1.50879 1.46191 1.41504 1.375 1.33594 1.29785 1.2627 1.23047 1.19922 1.16895 1.1416 1.11426 1.08984 1.06738 1.04785 1.03125 1.0166 1.00488 0.996094 0.988281 0.980957 0.976562 0.972656 0.969238 0.96875 1.92969 1.86035 1.79688 1.73438 1.67285 1.61719 1.5625 1.50879 1.46191 1.41504 1.375 1.33594 1.29785 1.2627 1.23047 1.19922 1.16895 1.1416 1.11426 1.08984 1.06738 1.04785 1.03125 1.0166 1.00488 0.996094 0.988281 0.980957 0.976562 0.972656 0.969238 0.96875 1.92969 1.86035 1.79688 1.73438 1.67285 1.61719 1.5625 1.50879 1.46191 1.41504 1.375 1.33594 1.29785 1.2627 1.23047 1.19922 1.16895 1.1416 1.11426 1.08984 1.06738 1.04785 1.03125 1.0166 1.00488 0.996094 0.988281 0.980957 0.976562 0.972656 0.969238 0.96875 1.92969 1.86035 1.79688 1.73438 1.67285 1.61719 1.5625 1.50879 1.46191 1.41504 1.375 1.33594 1.29785 1.2627 1.23047 1.19922 1.16895 1.1416 1.11426 1.08984 1.06738 1.04785 1.03125 1.0166 1.00488 0.996094 0.988281 0.980957 0.976562 0.972656 0.969238 0.96875 1.92969 1.86035 1.79688 1.73438 1.67285 1.61719 1.5625 1.50879 1.46191 1.41504 1.375 1.33594 1.29785 1.2627 1.23047 1.19922 1.16895 1.1416 1.11426 1.08984 1.06738 1.04785 1.03125 1.0166 1.00488 0.996094 0.988281 0.980957 0.976562 0.972656 0.969238 0.96875 1.92969 1.86035 1.79688 1.73438 1.67285 1.61719 1.5625 1.50879 1.46191 1.41504 1.375 1.33594 1.29785 1.2627 1.23047 1.19922 1.16895 1.1416 1.11426 1.08984 1.06738 1.04785 1.03125 1.0166 1.00488 0.996094 0.988281 0.980957 0.976562 0.972656 0.969238 0.96875 1.92969 1.86035 1.79688 1.73438 1.67285 1.61719 1.5625 1.50879 1.46191 1.41504 1.375 1.33594 1.29785 1.2627 1.23047 1.19922 1.16895 1.1416 1.11426 1.08984 1.06738 1.04785 1.03125 1.0166 1.00488 0.996094 0.988281 0.980957 0.976562 0.972656 0.969238 0.96875 1.92969 1.86035 1.79688 1.73438 1.67285 1.61719 1.5625 1.50879 1.46191 1.41504 1.375 1.33594 1.29785 1.2627 1.23047 1.19922 1.16895 1.1416 1.11426 1.08984 1.06738 1.04785 1.03125 1.0166 1.00488 0.996094 0.988281 0.980957 0.976562 0.972656 0.969238 0.96875 1.92969 1.86035 1.79688 1.73438 1.67285 1.61719 1.5625 1.50879 1.46191 1.41504 1.375 1.33594 1.29785 1.2627 1.23047 1.19922 1.16895 1.1416 1.11426 1.08984 1.06738 1.04785 1.03125 1.0166 1.00488 0.996094 0.988281 0.980957 0.976562 0.972656 0.969238 0.96875 1.92969 1.86035 1.79688 1.73438 1.67285 1.61719 1.5625 1.50879 1.46191 1.41504 1.375 1.33594 1.29785 1.2627 1.23047 1.19922 1.16895 1.1416 1.11426 1.08984 1.06738 1.04785 1.03125 1.0166 1.00488 0.996094 0.988281 0.980957 0.976562 0.972656 0.969238 0.96875 1.92969 1.86035 1.79688 1.73438 1.67285 1.61719 1.5625 1.50879 1.46191 1.41504 1.375 1.33594 1.29785 1.2627 1.23047 1.19922 1.16895 1.1416 1.11426 1.08984 1.06738 1.04785 1.03125 1.0166 1.00488 0.996094 0.988281 0.980957 0.976562 0.972656 0.969238 0.96875 1.92969 1.86035 1.79688 1.73438 1.67285 1.61719 1.5625 1.50879 1.46191 1.41504 1.375 1.33594 1.29785 1.2627 1.23047 1.19922 1.16895 1.1416 1.11426 1.08984 1.06738 1.04785 1.03125 1.0166 1.00488 0.996094 0.988281 0.980957 0.976562 0.972656 0.969238 0.