<?xml version="1.0"?>
<VTKFile type="ImageData" version="0.1" byte_order="LittleEndian">
  <ImageData WholeExtent="0 31 0 31 0 31" Origin="0 0 0" Spacing="0.03125 0.03125 0.03125">
    <Piece Extent="0 31 0 31 0 31">
      <PointData Scalars="phi">
        <DataArray type="Float64" Name="phi" format="ascii">
1.99787 1.99575 1.99363 1.99153 1.98945 1.9874 1.98537 1.98338 1.98143 1.97951 1.97765 1.97584 1.97409 1.97239 1.97076 1.9692 1.96771 1.96629 1.96496 1.9637 1.96253 1.96145 1.96046 1.95956 1.95876 1.95806 1.95745 1.95695 1.95655 1.95625 1.95606 1.95598 1.99787 1.99574 1.99363 1.99153 1.98945 1.98739 1.98537 1.98337 1.98142 1.97951 1.97764 1.97583 1.97408 1.97238 1.97075 1.96919 1.9677 1.96628 1.96494 1.96369 1.96252 1.96144 1.96045 1.95955 1.95875 1.95804 1.95744 1.95694 1.95653 1.95624 1.95605 1.95596 1.99787 1.99574 1.99363 1.99153 1.98945 1.98739 1.98536 1.98337 1.98141 1.9795 1.97764 1.97583 1.97407 1.97238 1.97074 1.96918 1.96769 1.96627 1.96494 1.96368 1.96251 1.96143 1.96044 1.95954 1.95873 1.95803 1.95743 1.95692 1.95652 1.95622 1.95603 1.95595 1.99787 1.99574 1.99363 1.99153 1.98944 1.98739 1.98536 1.98337 1.98141 1.9795 1.97764 1.97582 1.97407 1.97237 1.97074 1.96918 1.96768 1.96627 1.96493 1.96367 1.9625 1.96142 1.96043 1.95953 1.95872 1.95802 1.95741 1.95691 1.95651 1.95621 1.95602 1.95593 1.99787 1.99574 1.99363 1.99153 1.98944 1.98739 1.98536 1.98337 1.98141 1.9795 1.97763 1.97582 1.97407 1.97237 1.97074 1.96917 1.96768 1.96626 1.96492 1.96367 1.9625 1.96141 1.96042 1.95952 1.95872 1.95801 1.95741 1.9569 1.9565 1.9562 1.95601 1.95592 1.99787 1.99574 1.99363 1.99152 1.98944 1.98739 1.98536 1.98337 1.98141 1.9795 1.97763 1.97582 1.97407 1.97237 1.97074 1.96917 1.96768 1.96626 1.96492 1.96367 1.96249 1.96141 1.96042 1.95952 1.95871 1.95801 1.9574 1.9569 1.95649 1.9562 1.956 1.95592 1.99787 1.99574 1.99363 1.99153 1.98944 1.98739 1.98536 1.98337 1.98141 1.9795 1.97764 1.97582 1.97407 1.97237 1.97074 1.96917 1.96768 1.96626 1.96492 1.96367 1.96249 1.96141 1.96041 1.95951 1.95871 1.958 1.9574 1.95689 1.95649 1.95619 1.956 1.95591 1.99787 1.99574 1.99363 1.99153 1.98944 1.98739 1.98536 1.98337 1.98141 1.9795 1.97764 1.97583 1.97407 1.97237 1.97074 1.96918 1.96768 1.96627 1.96493 1.96367 1.96249 1.96141 1.96041 1.95951 1.95871 1.958 1.95739 1.95689 1.95648 1.95619 1.95599 1.95591 1.99787 1.99574 1.99363 1.99153 1.98945 1.98739 1.98536 1.98337 1.98142 1.97951 1.97764 1.97583 1.97408 1.97238 1.97075 1.96918 1.96769 1.96627 1.96493 1.96367 1.9625 1.96141 1.96042 1.95951 1.95871 1.958 1.95739 1.95689 1.95648 1.95618 1.95599 1.9559 1.99787 1.99574 1.99363 1.99153 1.98945 1.98739 1.98537 1.98337 1.98142 1.97951 1.97765 1.97584 1.97408 1.97238 1.97075 1.96919 1.96769 1.96628 1.96493 1.96368 1.9625 1.96141 1.96042 1.95952 1.95871 1.958 1.95739 1.95689 1.95648 1.95618 1.95599 1.9559 1.99787 1.99575 1.99363 1.99153 1.98945 1.9874 1.98537 1.98338 1.98142 1.97951 1.97765 1.97584 1.97409 1.97239 1.97076 1.96919 1.9677 1.96628 1.96494 1.96368 1.96251 1.96142 1.96042 1.95952 1.95871 1.958 1.95739 1.95689 1.95648 1.95618 1.95599 1.9559 1.99787 1.99575 1.99363 1.99153 1.98945 1.9874 1.98537 1.98338 1.98143 1.97952 1.97766 1.97585 1.97409 1.9724 1.97077 1.9692 1.96771 1.96629 1.96495 1.96369 1.96251 1.96142 1.96043 1.95952 1.95871 1.958 1.95739 1.95689 1.95648 1.95618 1.95599 1.9559 1.99787 1.99575 1.99363 1.99153 1.98945 1.9874 1.98538 1.98338 1.98143 1.97952 1.97766 1.97585 1.9741 1.9724 1.97077 1.96921 1.96771 1.96629 1.96495 1.96369 1.96252 1.96143 1.96043 1.95952 1.95872 1.95801 1.9574 1.95689 1.95648 1.95618 1.95599 1.9559 1.99787 1.99575 1.99363 1.99154 1.98946 1.9874 1.98538 1.98339 1.98144 1.97953 1.97767 1.97586 1.9741 1.97241 1.97078 1.96921 1.96772 1.9663 1.96496 1.9637 1.96252 1.96143 1.96043 1.95953 1.95872 1.95801 1.9574 1.95689 1.95649 1.95619 1.95599 1.9559 1.99787 1.99575 1.99363 1.99154 1.98946 1.9874 1.98538 1.98339 1.98144 1.97953 1.97767 1.97586 1.97411 1.97241 1.97078 1.96922 1.96772 1.9663 1.96496 1.9637 1.96252 1.96144 1.96044 1.95953 1.95872 1.95801 1.9574 1.95689 1.95649 1.95619 1.95599 1.9559 1.99787 1.99575 1.99364 1.99154 1.98946 1.98741 1.98538 1.98339 1.98144 1.97953 1.97767 1.97586 1.97411 1.97242 1.97079 1.96922 1.96773 1.96631 1.96497 1.9637 1.96253 1.96144 1.96044 1.95953 1.95872 1.95801 1.9574 1.95689 1.95649 1.95619 1.95599 1.95591 1.99787 1.99575 1.99364 1.99154 1.98946 1.98741 1.98538 1.98339 1.98144 1.97954 1.97767 1.97587 1.97411 1.97242 1.97079 1.96922 1.96773 1.96631 1.96497 1.96371 1.96253 1.96144 1.96044 1.95954 1.95873 1.95802 1.9574 1.9569 1.95649 1.95619 1.956 1.95591 1.99787 1.99575 1.99364 1.99154 1.98946 1.98741 1.98538 1.98339 1.98144 1.97954 1.97768 1.97587 1.97411 1.97242 1.97079 1.96922 1.96773 1.96631 1.96497 1.96371 1.96253 1.96144 1.96044 1.95954 1.95873 1.95802 1.95741 1.9569 1.95649 1.95619 1.956 1.95591 1.99787 1.99575 1.99364 1.99154 1.98946 1.98741 1.98538 1.98339 1.98144 1.97954 1.97767 1.97587 1.97411 1.97242 1.97079 1.96922 1.96773 1.96631 1.96497 1.96371 1.96253 1.96144 1.96044 1.95954 1.95873 1.95802 1.95741 1.9569 1.95649 1.95619 1.956 1.95591 1.99787 1.99575 1.99364 1.99154 1.98946 1.98741 1.98538 1.98339 1.98144 1.97953 1.97767 1.97586 1.97411 1.97242 1.97079 1.96922 1.96773 1.96631 1.96497 1.96371 1.96253 1.96144 1.96044 1.95954 1.95873 1.95802 1.95741 1.9569 1.9565 1.9562 1.956 1.95591 1.99787 1.99575 1.99364 1.99154 1.98946 1.98741 1.98538 1.98339 1.98144 1.97953 1.97767 1.97586 1.97411 1.97241 1.97078 1.96922 1.96773 1.96631 1.96497 1.9637 1.96253 1.96144 1.96044 1.95954 1.95873 1.95802 1.95741 1.9569 1.9565 1.9562 1.956 1.95592 1.99787 1.99575 1.99363 1.99154 1.98946 1.9874 1.98538 1.98339 1.98144 1.97953 1.97767 1.97586 1.97411 1.97241 1.97078 1.96922 1.96772 1.9663 1.96496 1.9637 1.96253 1.96144 1.96044 1.95954 1.95873 1.95802 1.95741 1.9569 1.9565 1.9562 1.95601 1.95592 1.99787 1.99575 1.99363 1.99154 1.98946 1.9874 1.98538 1.98339 1.98144 1.97953 1.97767 1.97586 1.9741 1.97241 1.97078 1.96921 1.96772 1.9663 1.96496 1.9637 1.96253 1.96144 1.96044 1.95954 1.95873 1.95802 1.95741 1.95691 1.9565 1.9562 1.95601 1.95592 1.99787 1.99575 1.99363 1.99153 1.98946 1.9874 1.98538 1.98339 1.98143 1.97952 1.97766 1.97585 1.9741 1.9724 1.97077 1.96921 1.96772 1.9663 1.96496 1.9637 1.96252 1.96144 1.96044 1.95954 1.95873 1.95802 1.95742 1.95691 1.95651 1.95621 1.95601 1.95593 1.99787 1.99575 1.99363 1.99153 1.98946 1.9874 1.98538 1.98338 1.98143 1.97952 1.97766 1.97585 1.9741 1.9724 1.97077 1.96921 1.96771 1.9663 1.96496 1.9637 1.96252 1.96144 1.96044 1.95954 1.95873 1.95803 1.95742 1.95691 1.95651 1.95621 1.95602 1.95593 1.99787 1.99575 1.99363 1.99153 1.98945 1.9874 1.98537 1.98338 1.98143 1.97952 1.97766 1.97585 1.97409 1.9724 1.97077 1.9692 1.96771 1.96629 1.96495 1.9637 1.96252 1.96144 1.96044 1.95954 1.95874 1.95803 1.95742 1.95692 1.95652 1.95622 1.95602 1.95594 1.99787 1.99575 1.99363 1.99153 1.98945 1.9874 1.98537 1.98338 1.98143 1.97952 1.97766 1.97585 1.97409 1.9724 1.97077 1.9692 1.96771 1.96629 1.96496 1.9637 1.96253 1.96144 1.96045 1.95955 1.95874 1.95804 1.95743 1.95693 1.95652 1.95623 1.95603 1.95594 1.99787 1.99575 1.99363 1.99153 1.98946 1.9874 1.98538 1.98338 1.98143 1.97952 1.97766 1.97585 1.97409 1.9724 1.97077 1.96921 1.96771 1.9663 1.96496 1.9637 1.96253 1.96145 1.96045 1.95955 1.95875 1.95804 1.95744 1.95693 1.95653 1.95623 1.95604 1.95595 1.99787 1.99575 1.99363 1.99154 1.98946 1.9874 1.98538 1.98339 1.98143 1.97952 1.97766 1.97585 1.9741 1.9724 1.97077 1.96921 1.96772 1.9663 1.96496 1.96371 1.96254 1.96145 1.96046 1.95956 1.95876 1.95805 1.95745 1.95694 1.95654 1.95624 1.95605 1.95596 1.99787 1.99575 1.99364 1.99154 1.98946 1.9874 1.98538 1.98339 1.98144 1.97953 1.97767 1.97586 1.9741 1.97241 1.97078 1.96921 1.96772 1.96631 1.96497 1.96371 1.96254 1.96146 1.96047 1.95957 1.95877 1.95806 1.95746 1.95695 1.95655 1.95626 1.95606 1.95598 1.99787 1.99575 1.99364 1.99154 1.98946 1.98741 1.98538 1.98339 1.98144 1.97953 1.97767 1.97586 1.97411 1.97241 1.97078 1.96922 1.96773 1.96632 1.96498 1.96372 1.96255 1.96147 1.96048 1.95958 1.95878 1.95808 1.95747 1.95697 1.95657 1.95627 1.95608 1.95599 1.99787 1.99575 1.99364 1.99154 1.98946 1.98741 1.98539 1.9834 1.98145 1.97954 1.97768 1.97587 1.97412 1.97242 1.97079 1.96923 1.96774 1.96633 1.96499 1.96374 1.96257 1.96149 1.9605 1.9596 1.9588 1.95809 1.95749 1.95698 1.95658 1.95629 1.95609 1.95601 1.99787 1.99574 1.99363 1.99153 1.98945 1.98739 1.98537 1.98337 1.98142 1.97951 1.97764 1.97583 1.97408 1.97238 1.97075 1.96919 1.9677 1.96628 1.96494 1.96369 1.96252 1.96144 1.96045 1.95955 1.95875 1.95804 1.95744 1.95694 1.95653 1.95624 1.95605 1.95596 1.99787 1.99574 1.99363 1.99153 1.98945 1.98739 1.98536 1.98337 1.98141 1.9795 1.97764 1.97583 1.97407 1.97237 1.97074 1.96918 1.96769 1.96627 1.96493 1.96368 1.96251 1.96142 1.96043 1.95953 1.95873 1.95803 1.95742 1.95692 1.95652 1.95622 1.95603 1.95594 1.99787 1.99574 1.99363 1.99152 1.98944 1.98739 1.98536 1.98336 1.98141 1.9795 1.97763 1.97582 1.97406 1.97237 1.97074 1.96917 1.96768 1.96626 1.96492 1.96367 1.9625 1.96141 1.96042 1.95952 1.95872 1.95802 1.95741 1.95691 1.95651 1.95621 1.95602 1.95593 1.99787 1.99574 1.99362 1.99152 1.98944 1.98738 1.98536 1.98336 1.98141 1.97949 1.97763 1.97582 1.97406 1.97236 1.97073 1.96917 1.96767 1.96626 1.96492 1.96366 1.96249 1.96141 1.96041 1.95951 1.95871 1.95801 1.9574 1.9569 1.95649 1.9562 1.956 1.95592 1.99787 1.99574 1.99362 1.99152 1.98944 1.98738 1.98535 1.98336 1.9814 1.97949 1.97763 1.97581 1.97406 1.97236 1.97073 1.96916 1.96767 1.96625 1.96491 1.96366 1.96248 1.9614 1.96041 1.95951 1.9587 1.958 1.95739 1.95689 1.95649 1.95619 1.956 1.95591 1.99787 1.99574 1.99362 1.99152 1.98944 1.98738 1.98535 1.98336 1.9814 1.97949 1.97763 1.97582 1.97406 1.97236 1.97073 1.96916 1.96767 1.96625 1.96491 1.96365 1.96248 1.9614 1.9604 1.9595 1.9587 1.95799 1.95739 1.95688 1.95648 1.95618 1.95599 1.9559 1.99787 1.99574 1.99362 1.99152 1.98944 1.98738 1.98536 1.98336 1.98141 1.97949 1.97763 1.97582 1.97406 1.97236 1.97073 1.96917 1.96767 1.96625 1.96491 1.96365 1.96248 1.9614 1.9604 1.9595 1.9587 1.95799 1.95738 1.95688 1.95647 1.95618 1.95598 1.95589 1.99787 1.99574 1.99363 1.99152 1.98944 1.98738 1.98536 1.98336 1.98141 1.9795 1.97763 1.97582 1.97406 1.97237 1.97073 1.96917 1.96768 1.96626 1.96492 1.96366 1.96248 1.9614 1.9604 1.9595 1.95869 1.95799 1.95738 1.95687 1.95647 1.95617 1.95598 1.95589 1.99787 1.99574 1.99363 1.99152 1.98944 1.98739 1.98536 1.98337 1.98141 1.9795 1.97764 1.97583 1.97407 1.97237 1.97074 1.96917 1.96768 1.96626 1.96492 1.96366 1.96249 1.9614 1.9604 1.9595 1.95869 1.95799 1.95738 1.95687 1.95647 1.95617 1.95598 1.95589 1.99787 1.99574 1.99363 1.99153 1.98945 1.98739 1.98536 1.98337 1.98142 1.97951 1.97764 1.97583 1.97407 1.97238 1.97075 1.96918 1.96769 1.96627 1.96493 1.96367 1.96249 1.9614 1.96041 1.9595 1.9587 1.95799 1.95738 1.95687 1.95647 1.95617 1.95597 1.95589 1.99787 1.99574 1.99363 1.99153 1.98945 1.98739 1.98537 1.98337 1.98142 1.97951 1.97765 1.97584 1.97408 1.97239 1.97075 1.96919 1.96769 1.96627 1.96493 1.96367 1.9625 1.96141 1.96041 1.95951 1.9587 1.95799 1.95738 1.95687 1.95647 1.95617 1.95597 1.95589 1.99787 1.99574 1.99363 1.99153 1.98945 1.98739 1.98537 1.98338 1.98142 1.97951 1.97765 1.97584 1.97409 1.97239 1.97076 1.96919 1.9677 1.96628 1.96494 1.96368 1.9625 1.96141 1.96041 1.95951 1.9587 1.95799 1.95738 1.95687 1.95647 1.95617 1.95597 1.95589 1.99787 1.99575 1.99363 1.99153 1.98945 1.9874 1.98537 1.98338 1.98143 1.97952 1.97766 1.97585 1.97409 1.9724 1.97077 1.9692 1.96771 1.96629 1.96494 1.96368 1.96251 1.96142 1.96042 1.95951 1.9587 1.95799 1.95738 1.95687 1.95647 1.95617 1.95597 1.95589 1.99787 1.99575 1.99363 1.99153 1.98945 1.9874 1.98537 1.98338 1.98143 1.97952 1.97766 1.97585 1.9741 1.9724 1.97077 1.96921 1.96771 1.96629 1.96495 1.96369 1.96251 1.96142 1.96042 1.95952 1.95871 1.958 1.95738 1.95688 1.95647 1.95617 1.95598 1.95589 1.99787 1.99575 1.99363 1.99153 1.98946 1.9874 1.98538 1.98339 1.98144 1.97953 1.97767 1.97586 1.9741 1.97241 1.97078 1.96921 1.96772 1.9663 1.96496 1.96369 1.96252 1.96143 1.96043 1.95952 1.95871 1.958 1.95739 1.95688 1.95647 1.95617 1.95598 1.95589 1.99787 1.99575 1.99363 1.99154 1.98946 1.9874 1.98538 1.98339 1.98144 1.97953 1.97767 1.97586 1.97411 1.97241 1.97078 1.96922 1.96772 1.9663 1.96496 1.9637 1.96252 1.96143 1.96043 1.95952 1.95871 1.958 1.95739 1.95688 1.95647 1.95617 1.95598 1.95589 1.99787 1.99575 1.99363 1.99154 1.98946 1.9874 1.98538 1.98339 1.98144 1.97953 1.97767 1.97586 1.97411 1.97241 1.97078 1.96922 1.96772 1.9663 1.96496 1.9637 1.96252 1.96143 1.96043 1.95953 1.95871 1.958 1.95739 1.95688 1.95648 1.95618 1.95598 1.95589 1.99787 1.99575 1.99363 1.99154 1.98946 1.9874 1.98538 1.98339 1.98144 1.97953 1.97767 1.97586 1.97411 1.97242 1.97078 1.96922 1.96773 1.96631 1.96496 1.9637 1.96252 1.96143 1.96043 1.95953 1.95872 1.958 1.95739 1.95688 1.95648 1.95618 1.95598 1.95589 1.99787 1.99575 1.99363 1.99154 1.98946 1.9874 1.98538 1.98339 1.98144 1.97953 1.97767 1.97586 1.97411 1.97241 1.97078 1.96922 1.96772 1.9663 1.96496 1.9637 1.96252 1.96143 1.96043 1.95953 1.95872 1.95801 1.95739 1.95689 1.95648 1.95618 1.95598 1.9559 1.99787 1.99575 1.99363 1.99154 1.98946 1.9874 1.98538 1.98339 1.98144 1.97953 1.97767 1.97586 1.97411 1.97241 1.97078 1.96922 1.96772 1.9663 1.96496 1.9637 1.96252 1.96143 1.96043 1.95953 1.95872 1.95801 1.9574 1.95689 1.95648 1.95618 1.95599 1.9559 1.99787 1.99575 1.99363 1.99154 1.98946 1.9874 1.98538 1.98339 1.98144 1.97953 1.97767 1.97586 1.9741 1.97241 1.97078 1.96921 1.96772 1.9663 1.96496 1.9637 1.96252 1.96143 1.96043 1.95953 1.95872 1.95801 1.9574 1.95689 1.95648 1.95618 1.95599 1.9559 1.99787 1.99575 1.99363 1.99153 1.98946 1.9874 1.98538 1.98339 1.98143 1.97953 1.97766 1.97585 1.9741 1.97241 1.97077 1.96921 1.96772 1.9663 1.96495 1.96369 1.96252 1.96143 1.96043 1.95953 1.95872 1.95801 1.9574 1.95689 1.95649 1.95619 1.95599 1.9559 1.99787 1.99575 1.99363 1.99153 1.98945 1.9874 1.98537 1.98338 1.98143 1.97952 1.97766 1.97585 1.9741 1.9724 1.97077 1.96921 1.96771 1.96629 1.96495 1.96369 1.96252 1.96143 1.96043 1.95953 1.95872 1.95801 1.9574 1.95689 1.95649 1.95619 1.95599 1.95591 1.99787 1.99575 1.99363 1.99153 1.98945 1.9874 1.98537 1.98338 1.98143 1.97952 1.97766 1.97585 1.97409 1.9724 1.97077 1.9692 1.96771 1.96629 1.96495 1.96369 1.96251 1.96143 1.96043 1.95953 1.95872 1.95801 1.9574 1.95689 1.95649 1.95619 1.956 1.95591 1.99787 1.99575 1.99363 1.99153 1.98945 1.9874 1.98537 1.98338 1.98143 1.97952 1.97766 1.97584 1.97409 1.97239 1.97076 1.9692 1.9677 1.96629 1.96495 1.96369 1.96251 1.96143 1.96043 1.95953 1.95872 1.95801 1.95741 1.9569 1.9565 1.9562 1.956 1.95592 1.99787 1.99575 1.99363 1.99153 1.98945 1.9874 1.98537 1.98338 1.98143 1.97952 1.97765 1.97584 1.97409 1.97239 1.97076 1.9692 1.9677 1.96628 1.96494 1.96369 1.96251 1.96143 1.96043 1.95953 1.95872 1.95802 1.95741 1.9569 1.9565 1.9562 1.95601 1.95592 1.99787 1.99575 1.99363 1.99153 1.98945 1.9874 1.98537 1.98338 1.98143 1.97952 1.97765 1.97584 1.97409 1.97239 1.97076 1.9692 1.9677 1.96628 1.96495 1.96369 1.96251 1.96143 1.96044 1.95953 1.95873 1.95802 1.95742 1.95691 1.95651 1.95621 1.95602 1.95593 1.99787 1.99575 1.99363 1.99153 1.98945 1.9874 1.98537 1.98338 1.98143 1.97952 1.97765 1.97584 1.97409 1.97239 1.97076 1.9692 1.9677 1.96629 1.96495 1.96369 1.96252 1.96143 1.96044 1.95954 1.95874 1.95803 1.95742 1.95692 1.95652 1.95622 1.95603 1.95594 1.99787 1.99575 1.99363 1.99153 1.98945 1.9874 1.98537 1.98338 1.98143 1.97952 1.97765 1.97584 1.97409 1.97239 1.97076 1.9692 1.96771 1.96629 1.96495 1.9637 1.96252 1.96144 1.96045 1.95955 1.95874 1.95804 1.95743 1.95693 1.95653 1.95623 1.95604 1.95595 1.99787 1.99575 1.99363 1.99153 1.98946 1.9874 1.98537 1.98338 1.98143 1.97952 1.97766 1.97585 1.97409 1.9724 1.97077 1.9692 1.96771 1.9663 1.96496 1.9637 1.96253 1.96145 1.96046 1.95956 1.95875 1.95805 1.95744 1.95694 1.95654 1.95624 1.95605 1.95596 1.99787 1.99575 1.99364 1.99154 1.98946 1.9874 1.98538 1.98339 1.98144 1.97953 1.97766 1.97585 1.9741 1.97241 1.97078 1.96921 1.96772 1.96631 1.96497 1.96371 1.96254 1.96146 1.96047 1.95957 1.95877 1.95806 1.95746 1.95695 1.95655 1.95625 1.95606 1.95598 1.99787 1.99575 1.99364 1.99154 1.98946 1.98741 1.98538 1.98339 1.98144 1.97953 1.97767 1.97586 1.97411 1.97241 1.97078 1.96922 1.96773 1.96632 1.96498 1.96373 1.96256 1.96147 1.96048 1.95958 1.95878 1.95808 1.95747 1.95697 1.95657 1.95627 1.95608 1.95599 1.99787 1.99574 1.99363 1.99153 1.98945 1.98739 1.98536 1.98337 1.98141 1.9795 1.97764 1.97583 1.97407 1.97238 1.97074 1.96918 1.96769 1.96627 1.96494 1.96368 1.96251 1.96143 1.96044 1.95954 1.95873 1.95803 1.95743 1.95692 1.95652 1.95622 1.95603 1.95595 1.99787 1.99574 1.99363 1.99152 1.98944 1.98739 1.98536 1.98336 1.98141 1.9795 1.97763 1.97582 1.97406 1.97237 1.97074 1.96917 1.96768 1.96626 1.96492 1.96367 1.9625 1.96141 1.96042 1.95952 1.95872 1.95802 1.95741 1.95691 1.95651 1.95621 1.95602 1.95593 1.99787 1.99574 1.99362 1.99152 1.98944 1.98738 1.98535 1.98336 1.9814 1.97949 1.97763 1.97581 1.97406 1.97236 1.97073 1.96916 1.96767 1.96625 1.96491 1.96366 1.96249 1.9614 1.96041 1.95951 1.95871 1.958 1.9574 1.95689 1.95649 1.9562 1.956 1.95592 1.99787 1.99574 1.99362 1.99152 1.98944 1.98738 1.98535 1.98336 1.9814 1.97949 1.97762 1.97581 1.97405 1.97236 1.97072 1.96916 1.96767 1.96625 1.96491 1.96365 1.96248 1.9614 1.9604 1.9595 1.9587 1.95799 1.95739 1.95688 1.95648 1.95618 1.95599 1.9559 1.99787 1.99574 1.99362 1.99152 1.98944 1.98738 1.98535 1.98336 1.9814 1.97949 1.97762 1.97581 1.97405 1.97236 1.97072 1.96916 1.96766 1.96625 1.96491 1.96365 1.96248 1.96139 1.9604 1.9595 1.95869 1.95799 1.95738 1.95687 1.95647 1.95617 1.95598 1.95589 1.99787 1.99574 1.99362 1.99152 1.98944 1.98738 1.98535 1.98336 1.9814 1.97949 1.97762 1.97581 1.97405 1.97236 1.97072 1.96916 1.96766 1.96625 1.96491 1.96365 1.96247 1.96139 1.96039 1.95949 1.95869 1.95798 1.95737 1.95687 1.95647 1.95617 1.95597 1.95589 1.99787 1.99574 1.99362 1.99152 1.98944 1.98738 1.98535 1.98336 1.9814 1.97949 1.97763 1.97581 1.97406 1.97236 1.97073 1.96916 1.96767 1.96625 1.96491 1.96365 1.96247 1.96139 1.96039 1.95949 1.95868 1.95798 1.95737 1.95686 1.95646 1.95616 1.95597 1.95588 1.99787 1.99574 1.99362 1.99152 1.98944 1.98738 1.98535 1.98336 1.98141 1.97949 1.97763 1.97582 1.97406 1.97236 1.97073 1.96917 1.96767 1.96625 1.96491 1.96365 1.96248 1.96139 1.96039 1.95949 1.95868 1.95798 1.95737 1.95686 1.95646 1.95616 1.95597 1.95588 1.99787 1.99574 1.99363 1.99152 1.98944 1.98739 1.98536 1.98336 1.98141 1.9795 1.97763 1.97582 1.97407 1.97237 1.97074 1.96917 1.96768 1.96626 1.96492 1.96366 1.96248 1.96139 1.9604 1.95949 1.95868 1.95798 1.95737 1.95686 1.95646 1.95616 1.95596 1.95588 1.99787 1.99574 1.99363 1.99153 1.98944 1.98739 1.98536 1.98337 1.98141 1.9795 1.97764 1.97583 1.97407 1.97238 1.97074 1.96918 1.96768 1.96626 1.96492 1.96366 1.96249 1.9614 1.9604 1.95949 1.95869 1.95798 1.95737 1.95686 1.95646 1.95616 1.95596 1.95587 1.99787 1.99574 1.99363 1.99153 1.98945 1.98739 1.98536 1.98337 1.98142 1.97951 1.97765 1.97584 1.97408 1.97238 1.97075 1.96919 1.96769 1.96627 1.96493 1.96367 1.96249 1.9614 1.9604 1.9595 1.95869 1.95798 1.95737 1.95686 1.95646 1.95616 1.95596 1.95587 1.99787 1.99574 1.99363 1.99153 1.98945 1.98739 1.98537 1.98338 1.98142 1.97951 1.97765 1.97584 1.97409 1.97239 1.97076 1.9692 1.9677 1.96628 1.96494 1.96368 1.9625 1.96141 1.96041 1.9595 1.95869 1.95798 1.95737 1.95686 1.95646 1.95616 1.95596 1.95587 1.99787 1.99575 1.99363 1.99153 1.98945 1.9874 1.98537 1.98338 1.98143 1.97952 1.97766 1.97585 1.97409 1.9724 1.97077 1.9692 1.96771 1.96629 1.96494 1.96368 1.9625 1.96141 1.96041 1.95951 1.9587 1.95798 1.95737 1.95686 1.95646 1.95616 1.95596 1.95587 1.99787 1.99575 1.99363 1.99153 1.98945 1.9874 1.98537 1.98338 1.98143 1.97952 1.97766 1.97585 1.9741 1.97241 1.97078 1.96921 1.96772 1.96629 1.96495 1.96369 1.96251 1.96142 1.96042 1.95951 1.9587 1.95799 1.95738 1.95687 1.95646 1.95616 1.95596 1.95588 1.99787 1.99575 1.99363 1.99153 1.98946 1.9874 1.98538 1.98339 1.98144 1.97953 1.97767 1.97586 1.97411 1.97241 1.97078 1.96922 1.96772 1.9663 1.96496 1.96369 1.96252 1.96142 1.96042 1.95951 1.9587 1.95799 1.95738 1.95687 1.95646 1.95616 1.95597 1.95588 1.99787 1.99575 1.99363 1.99153 1.98946 1.9874 1.98538 1.98339 1.98144 1.97953 1.97767 1.97586 1.97411 1.97242 1.97079 1.96922 1.96773 1.96631 1.96496 1.9637 1.96252 1.96143 1.96043 1.95952 1.95871 1.95799 1.95738 1.95687 1.95646 1.95616 1.95597 1.95588 1.99787 1.99575 1.99363 1.99154 1.98946 1.9874 1.98538 1.98339 1.98144 1.97953 1.97767 1.97587 1.97411 1.97242 1.97079 1.96922 1.96773 1.96631 1.96496 1.9637 1.96252 1.96143 1.96043 1.95952 1.95871 1.958 1.95738 1.95687 1.95647 1.95617 1.95597 1.95588 1.99787 1.99575 1.99363 1.99154 1.98946 1.9874 1.98538 1.98339 1.98144 1.97953 1.97767 1.97587 1.97411 1.97242 1.97079 1.96922 1.96773 1.96631 1.96496 1.9637 1.96252 1.96143 1.96043 1.95952 1.95871 1.958 1.95738 1.95687 1.95647 1.95617 1.95597 1.95588 1.99787 1.99575 1.99363 1.99154 1.98946 1.9874 1.98538 1.98339 1.98144 1.97953 1.97767 1.97586 1.97411 1.97242 1.97079 1.96922 1.96773 1.96631 1.96496 1.9637 1.96252 1.96143 1.96043 1.95952 1.95871 1.958 1.95739 1.95688 1.95647 1.95617 1.95597 1.95589 1.99787 1.99575 1.99363 1.99154 1.98946 1.9874 1.98538 1.98339 1.98144 1.97953 1.97767 1.97586 1.97411 1.97241 1.97078 1.96922 1.96772 1.9663 1.96496 1.9637 1.96252 1.96143 1.96043 1.95952 1.95871 1.958 1.95739 1.95688 1.95647 1.95617 1.95598 1.95589 1.99787 1.99575 1.99363 1.99153 1.98946 1.9874 1.98538 1.98339 1.98144 1.97953 1.97767 1.97586 1.97411 1.97241 1.97078 1.96921 1.96772 1.9663 1.96496 1.9637 1.96252 1.96143 1.96043 1.95952 1.95871 1.958 1.95739 1.95688 1.95647 1.95617 1.95598 1.95589 1.99787 1.99575 1.99363 1.99153 1.98945 1.9874 1.98538 1.98339 1.98143 1.97953 1.97766 1.97585 1.9741 1.97241 1.97077 1.96921 1.96772 1.9663 1.96495 1.96369 1.96251 1.96142 1.96043 1.95952 1.95871 1.958 1.95739 1.95688 1.95647 1.95617 1.95598 1.95589 1.99787 1.99575 1.99363 1.99153 1.98945 1.9874 1.98537 1.98338 1.98143 1.97952 1.97766 1.97585 1.9741 1.9724 1.97077 1.9692 1.96771 1.96629 1.96495 1.96369 1.96251 1.96142 1.96042 1.95952 1.95871 1.958 1.95739 1.95688 1.95648 1.95618 1.95598 1.95589 1.99787 1.99575 1.99363 1.99153 1.98945 1.9874 1.98537 1.98338 1.98143 1.97952 1.97766 1.97585 1.97409 1.9724 1.97076 1.9692 1.96771 1.96629 1.96494 1.96368 1.96251 1.96142 1.96042 1.95952 1.95871 1.958 1.95739 1.95688 1.95648 1.95618 1.95599 1.9559 1.99787 1.99575 1.99363 1.99153 1.98945 1.9874 1.98537 1.98338 1.98143 1.97952 1.97765 1.97584 1.97409 1.97239 1.97076 1.9692 1.9677 1.96628 1.96494 1.96368 1.96251 1.96142 1.96042 1.95952 1.95871 1.958 1.95739 1.95689 1.95648 1.95618 1.95599 1.9559 1.99787 1.99575 1.99363 1.99153 1.98945 1.98739 1.98537 1.98338 1.98142 1.97951 1.97765 1.97584 1.97408 1.97239 1.97076 1.96919 1.9677 1.96628 1.96494 1.96368 1.96251 1.96142 1.96042 1.95952 1.95871 1.95801 1.9574 1.95689 1.95649 1.95619 1.956 1.95591 1.99787 1.99575 1.99363 1.99153 1.98945 1.98739 1.98537 1.98338 1.98142 1.97951 1.97765 1.97584 1.97408 1.97239 1.97075 1.96919 1.9677 1.96628 1.96494 1.96368 1.96251 1.96142 1.96043 1.95952 1.95872 1.95801 1.9574 1.9569 1.9565 1.9562 1.956 1.95592 1.99787 1.99575 1.99363 1.99153 1.98945 1.98739 1.98537 1.98338 1.98142 1.97951 1.97765 1.97584 1.97408 1.97239 1.97076 1.96919 1.9677 1.96628 1.96494 1.96368 1.96251 1.96142 1.96043 1.95953 1.95872 1.95802 1.95741 1.95691 1.9565 1.95621 1.95601 1.95592 1.99787 1.99575 1.99363 1.99153 1.98945 1.9874 1.98537 1.98338 1.98142 1.97951 1.97765 1.97584 1.97408 1.97239 1.97076 1.96919 1.9677 1.96628 1.96494 1.96369 1.96252 1.96143 1.96044 1.95954 1.95873 1.95803 1.95742 1.95692 1.95651 1.95622 1.95602 1.95594 1.99787 1.99575 1.99363 1.99153 1.98945 1.9874 1.98537 1.98338 1.98143 1.97952 1.97765 1.97584 1.97409 1.97239 1.97076 1.9692 1.96771 1.96629 1.96495 1.96369 1.96252 1.96144 1.96045 1.95955 1.95874 1.95804 1.95743 1.95693 1.95653 1.95623 1.95604 1.95595 1.99787 1.99575 1.99363 1.99153 1.98946 1.9874 1.98538 1.98338 1.98143 1.97952 1.97766 1.97585 1.97409 1.9724 1.97077 1.96921 1.96771 1.9663 1.96496 1.9637 1.96253 1.96145 1.96046 1.95956 1.95876 1.95805 1.95744 1.95694 1.95654 1.95624 1.95605 1.95596 1.99787 1.99575 1.99364 1.99154 1.98946 1.98741 1.98538 1.98339 1.98144 1.97953 1.97767 1.97586 1.9741 1.97241 1.97078 1.96922 1.96773 1.96631 1.96497 1.96372 1.96255 1.96146 1.96047 1.95957 1.95877 1.95806 1.95746 1.95696 1.95655 1.95626 1.95607 1.95598 1.99787 1.99574 1.99363 1.99153 1.98944 1.98739 1.98536 1.98337 1.98141 1.9795 1.97764 1.97582 1.97407 1.97237 1.97074 1.96918 1.96768 1.96627 1.96493 1.96367 1.9625 1.96142 1.96043 1.95953 1.95872 1.95802 1.95741 1.95691 1.95651 1.95621 1.95602 1.95593 1.99787 1.99574 1.99362 1.99152 1.98944 1.98738 1.98536 1.98336 1.98141 1.97949 1.97763 1.97582 1.97406 1.97236 1.97073 1.96917 1.96767 1.96626 1.96492 1.96366 1.96249 1.96141 1.96041 1.95951 1.95871 1.95801 1.9574 1.9569 1.95649 1.9562 1.956 1.95592 1.99787 1.99574 1.99362 1.99152 1.98944 1.98738 1.98535 1.98336 1.9814 1.97949 1.97762 1.97581 1.97405 1.97236 1.97072 1.96916 1.96767 1.96625 1.96491 1.96365 1.96248 1.9614 1.9604 1.9595 1.9587 1.95799 1.95739 1.95688 1.95648 1.95618 1.95599 1.9559 1.99787 1.99574 1.99362 1.99152 1.98944 1.98738 1.98535 1.98336 1.9814 1.97949 1.97762 1.97581 1.97405 1.97235 1.97072 1.96916 1.96766 1.96624 1.9649 1.96365 1.96247 1.96139 1.96039 1.95949 1.95869 1.95798 1.95738 1.95687 1.95647 1.95617 1.95598 1.95589 1.99787 1.99574 1.99362 1.99152 1.98944 1.98738 1.98535 1.98336 1.9814 1.97949 1.97762 1.97581 1.97405 1.97235 1.97072 1.96915 1.96766 1.96624 1.9649 1.96364 1.96247 1.96138 1.96039 1.95949 1.95868 1.95798 1.95737 1.95686 1.95646 1.95616 1.95597 1.95588 1.99787 1.99574 1.99362 1.99152 1.98944 1.98738 1.98535 1.98336 1.9814 1.97949 1.97762 1.97581 1.97405 1.97236 1.97072 1.96916 1.96766 1.96624 1.9649 1.96364 1.96247 1.96138 1.96039 1.95948 1.95868 1.95797 1.95736 1.95686 1.95646 1.95616 1.95596 1.95588 1.99787 1.99574 1.99362 1.99152 1.98944 1.98738 1.98535 1.98336 1.9814 1.97949 1.97763 1.97581 1.97406 1.97236 1.97073 1.96916 1.96767 1.96625 1.9649 1.96364 1.96247 1.96138 1.96039 1.95948 1.95868 1.95797 1.95736 1.95685 1.95645 1.95615 1.95596 1.95587 1.99787 1.99574 1.99362 1.99152 1.98944 1.98738 1.98535 1.98336 1.98141 1.97949 1.97763 1.97582 1.97406 1.97236 1.97073 1.96917 1.96767 1.96625 1.96491 1.96365 1.96247 1.96139 1.96039 1.95948 1.95868 1.95797 1.95736 1.95685 1.95645 1.95615 1.95596 1.95587 1.99787 1.99574 1.99363 1.99152 1.98944 1.98739 1.98536 1.98336 1.98141 1.9795 1.97764 1.97582 1.97407 1.97237 1.97074 1.96917 1.96768 1.96626 1.96492 1.96365 1.96248 1.96139 1.96039 1.95949 1.95868 1.95797 1.95736 1.95685 1.95645 1.95615 1.95595 1.95587 1.99787 1.99574 1.99363 1.99153 1.98944 1.98739 1.98536 1.98337 1.98142 1.97951 1.97764 1.97583 1.97408 1.97238 1.97075 1.96918 1.96769 1.96627 1.96492 1.96366 1.96248 1.9614 1.9604 1.95949 1.95868 1.95797 1.95736 1.95685 1.95645 1.95615 1.95595 1.95586 1.99787 1.99574 1.99363 1.99153 1.98945 1.98739 1.98537 1.98337 1.98142 1.97951 1.97765 1.97584 1.97409 1.97239 1.97076 1.96919 1.9677 1.96628 1.96493 1.96367 1.96249 1.9614 1.9604 1.9595 1.95869 1.95797 1.95736 1.95685 1.95645 1.95615 1.95595 1.95586 1.99787 1.99574 1.99363 1.99153 1.98945 1.9874 1.98537 1.98338 1.98143 1.97952 1.97766 1.97585 1.97409 1.9724 1.97077 1.9692 1.96771 1.96629 1.96494 1.96368 1.9625 1.96141 1.96041 1.9595 1.95869 1.95798 1.95736 1.95685 1.95645 1.95615 1.95595 1.95586 1.99787 1.99575 1.99363 1.99153 1.98945 1.9874 1.98537 1.98338 1.98143 1.97952 1.97766 1.97586 1.9741 1.97241 1.97078 1.96921 1.96772 1.9663 1.96495 1.96369 1.96251 1.96142 1.96041 1.95951 1.95869 1.95798 1.95737 1.95686 1.95645 1.95615 1.95595 1.95587 1.99787 1.99575 1.99363 1.99153 1.98945 1.9874 1.98538 1.98339 1.98144 1.97953 1.97767 1.97586 1.97411 1.97242 1.97079 1.96922 1.96773 1.9663 1.96496 1.9637 1.96252 1.96142 1.96042 1.95951 1.9587 1.95798 1.95737 1.95686 1.95645 1.95615 1.95596 1.95587 1.99787 1.99575 1.99363 1.99154 1.98946 1.9874 1.98538 1.98339 1.98144 1.97954 1.97768 1.97587 1.97412 1.97242 1.97079 1.96923 1.96773 1.96631 1.96497 1.9637 1.96252 1.96143 1.96043 1.95952 1.9587 1.95799 1.95737 1.95686 1.95646 1.95615 1.95596 1.95587 1.99787 1.99575 1.99363 1.99154 1.98946 1.98741 1.98538 1.98339 1.98144 1.97954 1.97768 1.97587 1.97412 1.97243 1.9708 1.96923 1.96774 1.96632 1.96497 1.96371 1.96253 1.96143 1.96043 1.95952 1.95871 1.95799 1.95738 1.95686 1.95646 1.95616 1.95596 1.95587 1.99787 1.99575 1.99363 1.99154 1.98946 1.98741 1.98538 1.9834 1.98145 1.97954 1.97768 1.97587 1.97412 1.97243 1.9708 1.96924 1.96774 1.96632 1.96497 1.96371 1.96253 1.96143 1.96043 1.95952 1.95871 1.95799 1.95738 1.95687 1.95646 1.95616 1.95596 1.95587 1.99787 1.99575 1.99364 1.99154 1.98946 1.98741 1.98538 1.9834 1.98145 1.97954 1.97768 1.97587 1.97412 1.97243 1.9708 1.96924 1.96774 1.96632 1.96498 1.96371 1.96253 1.96144 1.96043 1.95952 1.95871 1.95799 1.95738 1.95687 1.95646 1.95616 1.95596 1.95588 1.99787 1.99575 1.99363 1.99154 1.98946 1.98741 1.98538 1.98339 1.98145 1.97954 1.97768 1.97587 1.97412 1.97243 1.9708 1.96923 1.96774 1.96632 1.96497 1.96371 1.96253 1.96143 1.96043 1.95952 1.95871 1.95799 1.95738 1.95687 1.95646 1.95616 1.95597 1.95588 1.99787 1.99575 1.99363 1.99154 1.98946 1.98741 1.98538 1.98339 1.98144 1.97954 1.97768 1.97587 1.97412 1.97242 1.97079 1.96923 1.96774 1.96631 1.96497 1.96371 1.96253 1.96143 1.96043 1.95952 1.95871 1.95799 1.95738 1.95687 1.95646 1.95616 1.95597 1.95588 1.99787 1.99575 1.99363 1.99154 1.98946 1.9874 1.98538 1.98339 1.98144 1.97953 1.97767 1.97587 1.97411 1.97242 1.97079 1.96922 1.96773 1.96631 1.96496 1.9637 1.96252 1.96143 1.96043 1.95952 1.95871 1.95799 1.95738 1.95687 1.95647 1.95616 1.95597 1.95588 1.99787 1.99575 1.99363 1.99153 1.98946 1.9874 1.98538 1.98339 1.98144 1.97953 1.97767 1.97586 1.97411 1.97241 1.97078 1.96922 1.96772 1.9663 1.96496 1.9637 1.962