<?xml version="1.0"?>
<VTKFile type="ImageData" version="0.1" byte_order="LittleEndian">
  <ImageData WholeExtent="0 9 0 9 0 9" Origin="0 0 0" Spacing="0.1 0.1 0.1">
    <Piece Extent="0 9 0 9 0 9">
      <PointData Scalars="phi">
        <DataArray type="Float64" Name="phi" format="ascii">
2.00853 2.00863 2.00881 2.00903 2.00923 2.00935 2.00938 2.00933 2.00926 2.00921 2.00863 2.00875 2.00897 2.00922 2.00946 2.0096 2.00962 2.00954 2.00944 2.00937 2.00881 2.00897 2.00924 2.00958 2.00988 2.01006 2.01005 2.00992 2.00975 2.00965 2.00903 2.00922 2.00958 2.01002 2.01042 2.01065 2.0106 2.01038 2.01014 2.00998 2.00923 2.00946 2.00988 2.01042 2.01093 2.0112 2.01112 2.01081 2.01048 2.01028 2.00935 2.0096 2.01006 2.01065 2.0112 2.01151 2.0114 2.01105 2.01068 2.01046 2.00938 2.00962 2.01005 2.0106 2.01112 2.0114 2.01132 2.01101 2.01067 2.01047 2.00933 2.00954 2.00992 2.01038 2.01081 2.01105 2.01101 2.01078 2.01052 2.01036 2.00926 2.00944 2.00975 2.01014 2.01048 2.01068 2.01067 2.01052 2.01033 2.01021 2.00921 2.00937 2.00965 2.00998 2.01028 2.01046 2.01047 2.01036 2.01021 2.01012 2.01685 2.01706 2.01744 2.01789 2.0183 2.01856 2.0186 2.01849 2.01833 2.01821 2.01706 2.01731 2.01776 2.01831 2.01881 2.01911 2.01912 2.01894 2.0187 2.01854 2.01744 2.01776 2.01836 2.0191 2.01978 2.02016 2.02012 2.01977 2.01938 2.01913 2.01789 2.01831 2.0191 2.02011 2.02106 2.02158 2.02142 2.02083 2.02022 2.01984 2.0183 2.01881 2.01978 2.02106 2.02232 2.02302 2.0227 2.02184 2.02099 2.02049 2.01856 2.01911 2.02016 2.02158 2.02302 2.02383 2.02341 2.02239 2.02142 2.02086 2.0186 2.01912 2.02012 2.02142 2.0227 2.02341 2.0231 2.02222 2.02136 2.02086 2.01849 2.01894 2.01977 2.02083 2.02184 2.02239 2.02222 2.02162 2.02098 2.02059 2.01833 2.0187 2.01938 2.02022 2.02099 2.02142 2.02136 2.02098 2.02054 2.02026 2.01821 2.01854 2.01913 2.01984 2.02049 2.02086 2.02086 2.02059 2.02026 2.02004 2.02475 2.02507 2.02566 2.02638 2.02702 2.02742 2.02746 2.02725 2.02697 2.02677 2.02507 2.02547 2.02619 2.02709 2.02791 2.02839 2.02837 2.02801 2.02757 2.02729 2.02566 2.02619 2.02719 2.02846 2.02967 2.03034 2.03016 2.02945 2.02869 2.02824 2.02638 2.02709 2.02846 2.0303 2.03216 2.0332 2.03268 2.03138 2.03012 2.02941 2.02702 2.02791 2.02967 2.03216 2.03485 2.03646 2.03541 2.03331 2.03147 2.03047 2.02742 2.02839 2.03034 2.0332 2.03646 2.03861 2.03704 2.03439 2.03222 2.03107 2.02746 2.02837 2.03016 2.03268 2.03541 2.03704 2.03599 2.03387 2.03203 2.03102 2.02725 2.02801 2.02945 2.03138 2.03331 2.03439 2.03387 2.03254 2.03125 2.0305 2.02697 2.02757 2.02869 2.03012 2.03147 2.03222 2.03203 2.03125 2.03041 2.0299 2.02677 2.02729 2.02824 2.02941 2.03047 2.03107 2.03102 2.0305 2.0299 2.02952 2.03199 2.03243 2.03323 2.03421 2.03511 2.03565 2.03568 2.03534 2.0349 2.03462 2.03243 2.03298 2.03399 2.03528 2.03649 2.03718 2.03707 2.03645 2.03577 2.03535 2.03323 2.03399 2.03545 2.03741 2.03936 2.04047 2.03999 2.03868 2.03741 2.03668 2.03421 2.03528 2.03741 2.04047 2.04387 2.04595 2.04454 2.04186 2.03958 2.03835 2.03511 2.03649 2.03936 2.04387 2.04953 2.05369 2.05025 2.04535 2.04173 2.03992 2.03565 2.03718 2.04047 2.04595 2.05369 2.06085 2.05444 2.04749 2.04294 2.04079 2.03568 2.03707 2.03999 2.04454 2.05025 2.05444 2.051 2.04609 2.04244 2.04062 2.03534 2.03645 2.03868 2.04186 2.04535 2.04749 2.04609 2.04336 2.04102 2.03976 2.0349 2.03577 2.03741 2.03958 2.04173 2.04294 2.04244 2.04102 2.03963 2.03882 2.03462 2.03535 2.03668 2.03835 2.03992 2.04079 2.04062 2.03976 2.03882 2.03824 2.03834 2.03888 2.03986 2.04107 2.0422 2.04286 2.04286 2.04239 2.04183 2.04147 2.03888 2.03956 2.04083 2.04248 2.04408 2.045 2.04477 2.04386 2.04293 2.04236 2.03986 2.04083 2.04274 2.04541 2.04828 2.05001 2.04901 2.04691 2.04506 2.04403 2.04107 2.04248 2.04541 2.04999 2.05572 2.05993 2.05652 2.05163 2.048 2.04618 2.0422 2.04408 2.04828 2.05572 2.06724 2.0791 2.06809 2.05749 2.0511 2.04825 2.04286 2.045 2.05001 2.05993 2.0791 2.11023 2.07998 2.06176 2.05297 2.04941 2.04286 2.04477 2.04901 2.05652 2.06809 2.07998 2.06897 2.05835 2.05194 2.04907 2.04239 2.04386 2.04691 2.05163 2.05749 2.06176 2.05835 2.0534 2.0497 2.04784 2.04183 2.04293 2.04506 2.048 2.0511 2.05297 2.05194 2.0497 2.04769 2.04657 2.04147 2.04236 2.04403 2.04618 2.04825 2.04941 2.04907 2.04784 2.04657 2.0458 2.04361 2.0442 2.04527 2.04661 2.04786 2.04861 2.0486 2.04808 2.04746 2.04707 2.0442 2.04495 2.04635 2.04819 2.05002 2.0511 2.05078 2.04973 2.04867 2.04805 2.04527 2.04635 2.0485 2.05158 2.05507 2.05738 2.05589 2.05325 2.05106 2.04988 2.04661 2.04819 2.05158 2.05718 2.06503 2.07228 2.06591 2.05899 2.05444 2.05228 2.04786 2.05002 2.05507 2.06503 2.08425 2.11542 2.08518 2.06698 2.05819 2.05463 2.04861 2.0511 2.05738 2.07228 2.11542 2.28239 2.11639 2.0743 2.06064 2.05599 2.0486 2.05078 2.05589 2.06591 2.08518 2.11639 2.08616 2.06793 2.05911 2.05554 2.04808 2.04973 2.05325 2.05899 2.06698 2.0743 2.06793 2.06095 2.05632 2.05412 2.04746 2.04867 2.05106 2.05444 2.05819 2.06064 2.05911 2.05632 2.05396 2.05268 2.04707 2.04805 2.04988 2.05228 2.05463 2.05599 2.05554 2.05412 2.05268 2.05183 2.04771 2.04829 2.04935 2.05066 2.05188 2.05261 2.05265 2.05221 2.05165 2.05129 2.04829 2.04902 2.05037 2.05212 2.05381 2.05481 2.05462 2.05374 2.0528 2.05224 2.04935 2.05037 2.05237 2.05515 2.05812 2.05994 2.05899 2.0569 2.05504 2.05401 2.05066 2.05212 2.05515 2.05985 2.0657 2.06999 2.06663 2.06174 2.0581 2.05628 2.05188 2.05381 2.05812 2.0657 2.07734 2.08929 2.07832 2.06773 2.06133 2.05846 2.05261 2.05481 2.05994 2.06999 2.08929 2.12052 2.09031 2.07209 2.06328 2.05971 2.05265 2.05462 2.05899 2.06663 2.07832 2.09031 2.07935 2.06873 2.0623 2.05942 2.05221 2.05374 2.0569 2.06174 2.06773 2.07209 2.06873 2.06379 2.06008 2.05821 2.05165 2.0528 2.05504 2.0581 2.06133 2.06328 2.0623 2.06008 2.05806 2.05693 2.05129 2.05224 2.05401 2.05628 2.05846 2.05971 2.05942 2.05821 2.05693 2.05615 2.05065 2.05119 2.05215 2.05333 2.05443 2.05511 2.05523 2.05493 2.05449 2.05421 2.05119 2.05184 2.05303 2.05452 2.05594 2.05679 2.05677 2.05618 2.05549 2.05505 2.05215 2.05303 2.05468 2.05688 2.05906 2.06034 2.05994 2.05865 2.05735 2.0566 2.05333 2.05452 2.05688 2.06021 2.06386 2.06613 2.0648 2.06212 2.0598 2.05854 2.05443 2.05594 2.05906 2.06386 2.06981 2.07416 2.0708 2.06589 2.0622 2.06035 2.05511 2.05679 2.06034 2.06613 2.07416 2.08152 2.07519 2.06822 2.06361 2.06141 2.05523 2.05677 2.05994 2.0648 2.0708 2.07519 2.07183 2.06691 2.0632 2.06133 2.05493 2.05618 2.05865 2.06212 2.06589 2.06822 2.06691 2.06418 2.0618 2.0605 2.05449 2.05549 2.05735 2.0598 2.0622 2.06361 2.0632 2.0618 2.06037 2.05953 2.05421 2.05505 2.0566 2.05854 2.06035 2.06141 2.06133 2.0605 2.05953 2.05893 2.05252 2.053 2.05386 2.05491 2.05588 2.05651 2.05669 2.05651 2.05621 2.05599 2.053 2.05357 2.05459 2.05585 2.05702 2.05774 2.05785 2.05751 2.05703 2.05672 2.05386 2.05459 2.05593 2.05762 2.05922 2.06017 2.06011 2.05938 2.05855 2.05804 2.05491 2.05585 2.05762 2.05995 2.06226 2.06361 2.0632 2.06184 2.06046 2.05966 2.05588 2.05702 2.05922 2.06226 2.06547 2.06742 2.06645 2.06425 2.06226 2.06115 2.05651 2.05774 2.06017 2.06361 2.06742 2.06992 2.06843 2.06567 2.06332 2.06205 2.05669 2.05785 2.06011 2.0632 2.06645 2.06843 2.06748 2.06527 2.06325 2.06213 2.05651 2.05751 2.05938 2.06184 2.06425 2.06567 2.06527 2.06387 2.06245 2.06161 2.05621 2.05703 2.05855 2.06046 2.06226 2.06332 2.06325 2.06245 2.06152 2.06094 2.05599 2.05672 2.05804 2.05966 2.06115 2.06205 2.06213 2.06161 2.06094 2.0605 2.05342 2.05387 2.05467 2.05563 2.05652 2.05712 2.05734 2.05723 2.057 2.05682 2.05387 2.05438 2.05531 2.05643 2.05746 2.05813 2.0583 2.05808 2.05773 2.05749 2.05467 2.05531 2.05646 2.05789 2.05921 2.06001 2.06009 2.05964 2.05906 2.05867 2.05563 2.05643 2.05789 2.05973 2.06146 2.06247 2.06239 2.06159 2.06068 2.06011 2.05652 2.05746 2.05921 2.06146 2.06363 2.06488 2.06461 2.06343 2.06217 2.06141 2.05712 2.05813 2.06001 2.06247 2.06488 2.06629 2.06589 2.0645 2.06308 2.06223 2.05734 2.0583 2.06009 2.06239 2.06461 2.06589 2.06562 2.06443 2.06316 2.06239 2.05723 2.05808 2.05964 2.06159 2.06343 2.0645 2.06443 2.06361 2.06265 2.06205 2.057 2.05773 2.05906 2.06068 2.06217 2.06308 2.06316 2.06265 2.06198 2.06154 2.05682 2.05749 2.05867 2.06011 2.06141 2.06223 2.06239 2.06205 2.06154 2.0612 
        </DataArray>
      </PointData>
      <CellData></CellData>
    </Piece>
  </ImageData>
</VTKFile>
